! TOUCHSTONE file generated by CST MICROWAVE STUDIO
! Date and time: Mon Sep  2 13:04:57 2024
! Project name: MRI Body Coil 60cm 3T w phantom - wo meshrefiner - FD - Open Boundaries Add Space - NoMTS.cst
! Parameters = {C=17.8; C_tune_1=17.8; C_tune_2=17.8; Cs=9.73; L_tune=0; R_tune=40; Rs=1.09121; phantom_x_max=85; phantom_x_min=-85; phantom_y_max=-1.508; phantom_y_min=-31.508; phantom_z_max=360; phantom_z_min=240; state=21; state_2=8}
! Header version: 2024
! Port assignment regex: !\s*Touchstone port\s*([0-9]+)\s*=\s*(CST MWS port|CST DES external port|CST DES block port)\s*(.+)\s* \(\"(.*)\"\)(\s*mode\s*([0-9]+))?.*
! Touchstone port assignment:
! Touchstone port 1 = CST MWS port 1 ("")
! Touchstone port 2 = CST MWS port 5 ("")
# MHz S RI R 50
50                   0.939753742     0.336259849    -0.0207466386    0.0579864597     -0.020747239    0.0579885112      0.939758051     0.336243242
50.15                0.964888189     0.212943331    -0.0330695351     0.150044192    -0.0330803787     0.150060619      0.964967938     0.212616134
50.3                 0.899366367   -0.0927919525     0.0434540516     0.423435465     0.0429995462     0.423648419      0.899312424   -0.0936636014
50.45              -0.0212929901     0.123230029      0.976403894     0.175863642       0.97640303     0.175863113     -0.022974117     0.122925631
50.6                 0.513764035     0.631814814      0.448993263    -0.366013709      0.449018138    -0.365538428      0.513396437     0.632204016
50.75                0.713116836     0.561209272      0.259207226    -0.329839123      0.259323982    -0.329632727      0.713088935     0.561298083
50.9                 0.790205755     0.497452891      0.190420689    -0.302737472      0.190487144    -0.302664279       0.79030615     0.497322422
51.05                 0.83177783     0.446509729      0.155864501    -0.290540245      0.155886511    -0.290521426      0.831956014     0.446190955
51.2                 0.858632147     0.402394969      0.134659109    -0.287553634      0.134657223    -0.287553575      0.858869027     0.401892655
51.35                0.877756847     0.361600149       0.11961668    -0.290671427      0.119606805    -0.290675208      0.878041784     0.360906206
51.5                   0.8920077     0.322100364      0.107564893    -0.298347189      0.107556448    -0.298349656      0.892331902      0.32119878
51.65                0.902645137     0.282593981     0.0967876704     -0.30983726     0.0967850196     -0.30983761      0.902998844     0.281462629
51.8                 0.910168267     0.242131229     0.0861479961    -0.324840119     0.0861522038    -0.324839206      0.910538925      0.24074232
51.95                0.914621078     0.199930192     0.0747139173    -0.343322859     0.0747241476    -0.343321906      0.914991578     0.198250038
52.1                 0.915694449     0.155282636     0.0615545437    -0.365430342     0.0615690283    -0.365430365      0.916040938     0.153271007
52.25                0.912726054     0.107511086     0.0455884447     -0.39142611     0.0456051028     -0.39142771      0.913014889     0.105120345
52.4                 0.904628896    0.0559690556      0.025431044    -0.421632039     0.0254478633    -0.421635356      0.904812193    0.0531433437
52.55                0.889751513  9.98645807e-05  -0.000791755656    -0.456331207  -0.000776488219    -0.456335956      0.889760537  -0.00322518443
52.7                 0.865663428   -0.0604001198    -0.0356867488    -0.495577444    -0.0356742966    -0.495582983      0.865398778   -0.0642960444
52.85                0.828871237    -0.125217156    -0.0828961776    -0.538808351     -0.082887239    -0.538813794      0.828188554    -0.129757435
53                   0.774536043    -0.192675014     -0.147393138    -0.584077104     -0.147387748    -0.584081489      0.773226426    -0.197921293
53.15                0.696469685    -0.258330507     -0.235492683    -0.626619553     -0.235490171     -0.62662213      0.694236634    -0.264301609
53.3                 0.588202526     -0.31267731     -0.353781836    -0.656519468     -0.353780964    -0.656520129      0.584646258    -0.319287747
53.45                0.446807192     -0.33853285     -0.505273477     -0.65604599     -0.505273035    -0.656045671      0.441448577    -0.345490493
53.6                 0.281305482    -0.311501186     -0.680944174    -0.600070371     -0.680944067      -0.6000708      0.273711244     -0.31818973
53.75                0.122447391    -0.210955299     -0.849881248    -0.467039058     -0.849883015    -0.467041147      0.112497757    -0.216421951
53.9                 0.018124042   -0.0431495654     -0.963856098    -0.262108619     -0.963861058     -0.26211096    0.00628421403   -0.0463742931
54.05              0.00222761931     0.147907654     -0.988565686   -0.0279173962     -0.988572489   -0.0279180796    -0.0105167099     0.147538158
54.2                0.0670634847     0.307695628     -0.931261925     0.183087777     -0.931267994     0.183088084     0.0544621882     0.310163404
54.35                0.176185762      0.40642858     -0.827596937      0.34467813     -0.827601642     0.344676828      0.164433075     0.411317884
54.5                  0.29434345     0.442112797     -0.710772807     0.461103823     -0.710777888     0.461099012      0.283750914     0.448986218
54.65                0.399517613      0.42304162     -0.597265916     0.551870082     -0.597274052     0.551861856      0.390172723     0.431687758
54.8                 0.476756639     0.352921379     -0.486056824      0.64164732     -0.486070394     0.641637982      0.468761338     0.363500779
54.95                0.499106667     0.223008449       -0.3515125     0.759864507     -0.351532081     0.759859222      0.493005986     0.236231696
55.1                 0.369034777     0.028782504    -0.0932237378     0.924210493    -0.0932415208     0.924216821      0.367300639    0.0458696004
55.25               -0.128386869    0.0649993282      0.506052188     0.850346235      0.506051891      0.85034473     -0.118318966    0.0819315234
55.4                -0.159620983     0.753778672      0.624880991     0.126494504      0.624867547     0.126496108     -0.146204866     0.756378129
55.55                0.264265219     0.919416201      0.279588484   -0.0814139877      0.279589806    -0.081414977      0.270701337     0.917543626
55.7                 0.496163177      0.85816715       0.11290753   -0.0655243819      0.112909217   -0.0655365106      0.499023301     0.856630161
55.85                0.620387156     0.781980557     0.0436813611   -0.0347124036     0.0436785646   -0.0347307398      0.621650504     0.781196846
56                   0.697519128     0.715876112     0.0137328405    -0.013394604     0.0137252509   -0.0134158315      0.698005474     0.715700716
56.15                0.751210172     0.659547691    0.00102011172  -0.00116914201     0.0010083181  -0.00119142179      0.751290467      0.65981751
56.3                  0.79159815     0.610442864   -0.00343331503    0.0044443296   -0.00344861324    0.0044220736      0.791457695     0.611034119
56.45                0.823618695     0.566490377   -0.00369137872   0.00536044327   -0.00370952931   0.00533888523      0.823357654     0.567313825
56.6                 0.849945968     0.526213633    -0.0017630722   0.00284764655   -0.00178349259   0.00282723169      0.849621979      0.52720481
56.75                0.872154752      0.48855829    0.00128600776   -0.0022836713    0.00126383678  -0.00230263934      0.871802711     0.489670055
56.9                 0.891231849      0.45274504    0.00485510251  -0.00952705159     0.0048316474  -0.00954436341      0.890873793     0.453942479
57.05                0.907822347     0.418170552    0.00858348935   -0.0185794719     0.0085591735    -0.018594985      0.907472693     0.419427521
57.2                 0.922356845      0.38434291     0.0122364022   -0.0292791433     0.0122116138   -0.0292927653      0.922025317     0.385639648
57.35                0.935120331     0.350838588     0.0156424717   -0.0415677627     0.0156175704   -0.0415794412      0.934813679     0.352160041
57.5                 0.946289866     0.317272394     0.0186560184   -0.0554682323     0.0186313403   -0.0554779483      0.946012924     0.318607005
57.65                0.955953829     0.283275095     0.0211311016   -0.0710723993     0.0211069638   -0.0710801635      0.955710195     0.284613925
57.8                 0.964118654     0.248475532     0.0229001355   -0.0885355406       0.02287684   -0.0885413916      0.963911159     0.249811597
57.95                0.970705429     0.212485299     0.0237523887    -0.108075526     0.0237302251     -0.10807953      0.970536465     0.213813068
58.1                 0.975536356     0.174885075     0.0234084705    -0.129975129     0.0233877193    -0.129977385      0.975408133      0.17620007
58.25                0.978309172     0.135212633     0.0214866189    -0.154585884     0.0214675522    -0.154586523      0.978223925     0.136511098
58.4                   0.9785555    0.0929540131     0.0174554148    -0.182330992     0.0174382965    -0.182330189      0.978515675    0.0942326167
58.55                0.975576501    0.0475419283     0.0105654355    -0.213702547     0.0105505181    -0.213700528      0.975584927    0.0487974624
58.7                 0.968345786  -0.00162945102  -0.000250709286    -0.249243484  -0.000263193243    -0.249240544      0.968405843 -0.000400406911
58.85                0.955365821   -0.0551540343    -0.0165240667    -0.289494647    -0.0165339222    -0.289491162      0.955481607   -0.0539555399
59                   0.934462293    -0.113488376    -0.0404565295    -0.334867477    -0.0404636331    -0.334863931      0.934638751    -0.112325719
59.15                0.902509204    -0.176673926    -0.0751968861     -0.38536486     -0.075201246     -0.38536185      0.902752147    -0.175554477
59.3                  0.85512013     -0.24376351     -0.125150435    -0.440006597      -0.12515229    -0.440004822      0.855435973    -0.242697985
59.45                 0.78647973    -0.311718582     -0.196148189    -0.495726067     -0.196148143     -0.49572624      0.786874528    -0.310722842
59.6                 0.689849519     -0.37351849     -0.294941946    -0.545479384     -0.294941097    -0.545481982      0.690326471    -0.372615779
59.75                0.559977907    -0.415638814     -0.426795895    -0.575723993     -0.426795773    -0.575728795      0.560531948    -0.414861451
59.9                 0.399186152    -0.416821448     -0.589404147    -0.565188144     -0.589406097     -0.56519372      0.399794555    -0.416208626
60.05                 0.22661731     -0.35352115     -0.763646312    -0.490312285     -0.763650227    -0.490316236      0.227229514    -0.353106525
60.2                0.0813137012    -0.216958983     -0.910507558    -0.342290569     -0.910511174    -0.342291334     0.0818537439    -0.216745836
60.35              0.00432384378   -0.0305764421     -0.988953128    -0.144519955     -0.988953791    -0.144518663       0.00471932    -0.030518948
60.5               0.00899574884     0.158759585     -0.985619721    0.0561738872     -0.985617047    0.0561745198    0.00921526988     0.158740509
60.65               0.0750724625     0.312416812     -0.920736534     0.221172791     -0.920732293     0.221171167     0.0751326449     0.312394003
60.8                 0.170569132     0.417400209     -0.826273728      0.33747538     -0.826269828     0.337471766      0.170511136     0.417416696
60.95                0.271147312     0.479382898     -0.726571608     0.410747431     -0.726568986     0.410742983      0.271013093     0.479453923
61.1                  0.36421559     0.510045089     -0.634230502     0.452669181     -0.634229221      0.45266502      0.364037629     0.510169616
61.25                0.445335155     0.520056897     -0.553698062     0.473916913     -0.553697741     0.473913795      0.445135577     0.520227005
61.4                 0.514174715     0.517184768     -0.485312012     0.482266261     -0.485312145     0.482264585      0.513967639     0.517390785
61.55                0.572023903     0.506558926     -0.427786741     0.482857593     -0.427786852     0.482857506      0.571818001     0.506791662
61.7                 0.620591775     0.491419483     -0.379415377     0.478941163     -0.379415069     0.478942658      0.620392214     0.491670974
61.85                0.661515712     0.473769829     -0.338561412     0.472530176     -0.338560378     0.472533162      0.661325455     0.474033444
62                   0.696201357     0.454834869     -0.303819123     0.464858963     -0.303817135     0.464863305      0.696021992     0.455105171
62.15                 0.72579986     0.435356767     -0.274036556     0.456678777     -0.274033449     0.456684324      0.725632118     0.435629322
62.3                 0.751234507     0.415779514     -0.248289019      0.44844243     -0.248284678     0.448449026      0.751078588     0.416050695
62.45                0.773239956     0.396362754     -0.225839924     0.440418199     -0.225834272     0.440425692      0.773095728     0.396629576
62.6                 0.792400111     0.377251923     -0.206102945     0.432760033     -0.206095932     0.432768278      0.792267242     0.377511912
62.75                0.809180262     0.358521638     -0.188609894        0.425551     -0.188601496     0.425559863      0.809058295     0.358772718
62.9                 0.823952887      0.34020269      -0.17298492     0.418830343     -0.172975129     0.418839696      0.823841295     0.340443105
63.05                0.837017846     0.322298959     -0.158924303     0.412610426     -0.158913124     0.412620151      0.836916062     0.322527199
63.2                 0.848617995     0.304798048     -0.146180821     0.406887425      -0.14616827     0.406897413      0.848525433     0.305012803
63.35                0.858951218      0.28767801       -0.1345517     0.401648081     -0.134537802      0.40165823      0.858867285     0.287878122
63.5                 0.868179692     0.270911579     -0.123869311      0.39687398     -0.123854096     0.396884195      0.868103793     0.271096013
63.65                0.876437047     0.254468845     -0.113993976      0.39254425     -0.113977482     0.392554441      0.876368593      0.25463666
63.8                 0.883833926     0.238318909     -0.104808373     0.388637252     -0.104790641     0.388647338       0.88377233     0.238469234
63.95                 0.89046231     0.222430888    -0.0962131543     0.385131623    -0.0961942303     0.385141525      0.890406991     0.222562908
64.1                 0.896398917     0.206774512    -0.0881234992     0.382006897    -0.0881034311     0.382016543      0.896349298     0.206887448
64.25                0.901707875      0.19132044    -0.0804663782     0.379243854    -0.0804452175     0.379253175       0.90166338     0.191413539
64.4                 0.906442838      0.17604041    -0.0731783675     0.376824705    -0.0731561679     0.376833638       0.90640289     0.176112933
64.55                0.910648669     0.160907277    -0.0662038889     0.374733154    -0.0661807063     0.374741639      0.910612686     0.160958488
64.7                 0.914362781     0.145894983    -0.0594937797     0.372954405    -0.0594696721     0.372962385      0.914330174     0.145924144
64.85                0.917616212     0.130978481    -0.0530041219     0.371475113     -0.052979149     0.371482534      0.917586379     0.130984839
65                   0.920434478      0.11613364    -0.0466952734     0.370283319    -0.0466694965     0.370290131      0.920406803     0.116116426
65.15                0.922838263     0.101337134    -0.0405310575     0.369368368    -0.0405045396     0.369374526       0.92281211     0.101295549
65.3                 0.924843959    0.0865663223    -0.0344780784     0.368720826    -0.0344508842     0.368726285      0.924818667    0.0864995368
65.45                0.926464099    0.0717991352    -0.0285051338     0.368332379    -0.0284773293     0.368337098      0.926438974    0.0717062811
65.6                  0.92770768    0.0570139572    -0.0225827039     0.368195754    -0.0225543567     0.368199695      0.927681993    0.0568941209
65.75                0.928580419    0.0421895149    -0.0166824997      0.36830462    -0.0166536789     0.368307747      0.928553399    0.0420417318
65.9                 0.929084928    0.0273047706    -0.0107770554     0.368653502    -0.0107478317     0.368655784      0.929055751    0.0271280189
66.05                0.929220827    0.0123388217   -0.00483935379     0.369237693   -0.00480979934     0.369239099       0.92918861    0.0121320157
66.2                 0.928984801  -0.00272919364    0.00115752679     0.370053159    0.00118733798     0.370053661      0.928948594  -0.00296720983
66.35                0.928370605   -0.0179201826    0.00724075141     0.371096447    0.00727074368     0.371096022      0.928329378   -0.0181906419
66.5                 0.927369012   -0.0332551759     0.0134380629     0.372364581     0.0134681588     0.372363207      0.927321645   -0.0335593955
66.65                0.925967717   -0.0487553955     0.0197781187     0.373854956     0.0198082387     0.373852616      0.925912983   -0.0490947845
66.8                 0.924151184   -0.0644423116     0.0262908364     0.375565211     0.0263208991      0.37556189      0.924087738   -0.0648183784
66.95                0.921900439   -0.0803376841     0.0330077575     0.377493089     0.0330376793     0.377488776      0.921826798   -0.0807520452
67.1                 0.919192813   -0.0964635877     0.0399624338     0.379636272     0.0399921289     0.379630959      0.919107333   -0.0969179758
67.25                 0.91600161    -0.112842413     0.0471908454     0.381992182     0.0472202256     0.381985867      0.915902468    -0.113338686
67.4                  0.91229572    -0.129496842     0.0547318588     0.384557744     0.0547608333     0.384550428      0.912180882    -0.130036993
67.55                0.908039146    -0.146449782     0.0626277313     0.387329094     0.0626562069     0.387320785      0.907906336    -0.147035946
67.7                 0.903190449    -0.163724258     0.0709246723     0.390301223     0.0709525531     0.390291932      0.903037112    -0.164358726
67.85                0.897702099     -0.18134324     0.0796734708     0.393467526     0.0797006583     0.393457272      0.897525358    -0.182028463
68                   0.891519715    -0.199329393     0.0889301972     0.396819251     0.0889565903     0.396808061      0.891316321    -0.200067991
68.15                0.884581185    -0.217704719     0.0987569912       0.4003448     0.0987824863     0.400332708      0.884347456     -0.21849949
68.3                  0.87681565    -0.236490071      0.109222944     0.404028851      0.109247435       0.4040159      0.876547401    -0.237343995
68.45                0.868142336     -0.25570449       0.12040508     0.407851254      0.120428459     0.407837498      0.867834796    -0.256620727
68.6                 0.858469222    -0.275364314      0.132389449     0.411785628      0.132411609     0.411771134      0.858116937    -0.276346204
68.75                0.847691528    -0.295481993      0.145272321     0.415797591      0.145293151     0.415782436      0.847288246    -0.296533042
68.9                  0.83569003    -0.316064529      0.159161471     0.419842503      0.159180863     0.419826784      0.835228565    -0.317188387
69.05                0.822329189    -0.337111415      0.174177533     0.423862616      0.174195382     0.423846444      0.821801256    -0.338311842
69.2                 0.807455129    -0.358611956      0.190455368     0.427783429      0.190471572     0.427766935      0.806851156     -0.35989276
69.35                0.790893523    -0.380541765       0.20814534     0.431509078      0.208159808     0.431492414      0.790202422    -0.381906721
69.5                 0.772447471    -0.402858241       0.22741437     0.434916476      0.227427022     0.434899817      0.771656377    -0.404310958
69.65                 0.75189557    -0.425494741       0.24844649     0.437847899      0.248457266     0.437831445      0.750989523    -0.427038485
69.8                 0.728990433    -0.448353151      0.271442545     0.440101651      0.271451407     0.440085627      0.727952024    -0.449990585
69.95                0.703458145    -0.471294484      0.296618431     0.441420386      0.296625374      0.44140504      0.702267095    -0.473027311
70.1                 0.674999303    -0.494127185      0.324201017     0.441476647      0.324206082      0.44146225      0.673632002    -0.495955641
70.25                0.643292688    -0.516592822      0.354420479     0.439855252      0.354423759     0.439842088      0.641721685    -0.518514993
70.4                 0.608003002    -0.538349116      0.387497223     0.436032313      0.387498878     0.436020672      0.606196478    -0.540359999
70.55                0.568794677     -0.55895065        0.4236209     0.429351141      0.423621171     0.429341296      0.566715937    -0.561040886
70.7                 0.525354345    -0.577828458      0.462918192     0.418996085      0.462917406     0.418988271      0.522961416     -0.57998265
70.85                 0.47742507    -0.594271137      0.505405201     0.403966861      0.505403772     0.403961235      0.474670522    -0.596465646
71                   0.424855475    -0.607412418      0.550919762     0.383058292      0.550918177     0.383054891      0.421686676    -0.609612543
71.15                 0.36766585    -0.616233416      0.599029337     0.354853885      0.599028116     0.354852576      0.364025948      -0.6183899
71.3                 0.306129992    -0.619591936      0.648912331     0.317746274      0.648911959     0.317746712      0.301960036    -0.621636818
71.45                 0.24086448    -0.616295124      0.699216119     0.270002428      0.699216929     0.270004041      0.236107196    -0.618137116
71.6                 0.172904689    -0.605232907      0.747904902     0.209894582      0.747906926     0.209896622      0.167510505    -0.606752752
71.75                0.103729048    -0.585583187      0.792124668      0.13591519      0.792127488     0.135916881     0.0976648994    -0.586629764
71.9                0.0351733053      -0.5570788      0.828127007    0.0470809432      0.828129667    0.0470817705     0.0284345209    -0.557467111
72.05              -0.0308348093    -0.520284953      0.851298356   -0.0566948827      0.851299451   -0.0566947666    -0.0382096466    -0.519797351
72.2               -0.0927762752     -0.47677508       0.85632189    -0.174212103      0.856319974    -0.174211457     -0.100687999    -0.475167047
72.35               -0.150275454    -0.429026112      0.837448004    -0.302630807      0.837442384    -0.302627099     -0.158545032    -0.426037671
72.5                 -0.20495772    -0.379802821      0.788790389    -0.437146368       0.78878222    -0.437136154     -0.213304685     -0.37517706
72.65               -0.261148145    -0.330779279      0.704586999    -0.570512517      0.704580292     -0.57049276      -0.26916518     -0.32429209
72.8                -0.325833152    -0.280171045      0.579647757    -0.692011916      0.579649449     -0.69198244     -0.332956641    -0.271683589
72.95               -0.406697872     -0.21942004      0.410993953    -0.785532605      0.411011673    -0.785499108      -0.41218718    -0.208977345
73.1                -0.506133319    -0.130358651      0.202889274    -0.827758476      0.202925487    -0.827733578      -0.50911201    -0.118359286
73.25               -0.609958162    0.0116531713      -0.02317392    -0.791693843    -0.0231291437    -0.791690943     -0.609635378    0.0242565378
73.4                 -0.67883499     0.219535273     -0.221114616    -0.664531455     -0.221081208     -0.66455049     -0.674986651     0.231241654
73.55               -0.665126044     0.467773985     -0.337839235    -0.473502159     -0.337827961    -0.473525186     -0.658526856     0.477075957
73.7                -0.555379418     0.697198014     -0.355728155    -0.280250307     -0.355729525    -0.280261251     -0.547541301     0.703390411
73.85               -0.383305714     0.861093066     -0.305341739    -0.134373016     -0.305341606    -0.134372217     -0.375638779     0.864469525
74                  -0.195184634     0.951965875     -0.230794489   -0.0465226442     -0.230787925   -0.0465181703     -0.188481262      0.95331523
74.15              -0.0205212014     0.986741354     -0.160423614  -0.00291854087     -0.160412696  -0.00291591409    -0.0150182863     0.986840132
74.3                 0.129876281     0.985820746     -0.104690634    0.0140103676     -0.104678723    0.0140097412       0.13424101     0.985237552
74.45                0.255459842     0.964470374    -0.0643515993    0.0171562312    -0.0643408866     0.017153097      0.258857151     0.963568038
74.6                 0.359431295      0.93229749    -0.0367376167    0.0142182609    -0.0367289818    0.0142138934      0.362046365     0.931290885
74.75                0.445674253     0.894917521     -0.018662051   0.00931911176    -0.0186555438   0.00931460196       0.44767123     0.893927371
74.9                 0.517671203     0.855506748   -0.00740071725   0.00448913406   -0.00739599445   0.00448521138      0.519184596     0.854597068
75.05                0.578256839     0.815828905  -0.000876333298  0.000625918079  -0.000872926576  0.000622984276      0.579393121     0.815030506
75.2                 0.629658542     0.776843303    0.00241752121  -0.00195648231    0.00242006948  -0.00195826517       0.63050075     0.776167944
75.35                0.673608813      0.73905165    0.00354730786  -0.00322979159    0.00354938782  -0.00323041761      0.674221379     0.738500411
75.5                 0.711456937     0.702694296     0.0032589693  -0.00329489651    0.00326088803  -0.00329445217      0.711889862     0.702262493
75.65                0.744260626     0.667861911    0.00207086554  -0.00230154906    0.00207285056  -0.00230016928      0.744552817     0.667541967
75.8                 0.772856314     0.634559752   0.000341633286 -0.000408600721   0.000343843634 -0.000406440326      0.773038174     0.634342865
75.95                0.797911739     0.602745128   -0.00168165743   0.00223450431   -0.00167911832   0.00223728809      0.798007138     0.602622215
76.1                 0.819964989     0.572349475    -0.0038297558    0.0054952545   -0.00382682796   0.00549851221      0.819992763     0.572311698
76.25                0.839453567     0.543291455   -0.00598768836   0.00926007026   -0.00598434482   0.00926366559      0.839428656     0.543330498
76.4                  0.85673617     0.515484761   -0.00807834315    0.0134336576   -0.00807458139    0.0134374698      0.856670481     0.515592951
76.55                0.872109144     0.488842717    -0.0100510028    0.0179372218     -0.010046838    0.0179411461      0.872012208     0.489013068
76.7                 0.885819037     0.463280945     -0.011873313    0.0227063106    -0.0118687725    0.0227102581      0.885698519     0.463507147
76.85                0.898072278     0.438718844    -0.0135256396    0.0276886671    -0.0135207592    0.0276925633      0.897934366     0.438995227
77                   0.909042702     0.415080332    -0.0149970929    0.0328422615    -0.0149919136    0.0328460453      0.908892408     0.415401821
77.15                0.918877454     0.392294144    -0.0162827201    0.0381335661    -0.0162772857    0.0381371883      0.918718856     0.392656205
77.3                 0.927701673     0.370293855    -0.0173815184    0.0435360823    -0.0173758739    0.0435395042      0.927538095      0.37069244
77.45                0.935622221     0.349017737    -0.0182950282    0.0490291028    -0.0182892186    0.0490322947      0.935456381     0.349449237
77.6                 0.942730683     0.328408528    -0.0190263376    0.0545966823    -0.0190204068    0.0545996229       0.94256481     0.328869723
77.75                0.949105799     0.308413151    -0.0195793778     0.060226788    -0.0195733682    0.0602294627      0.948941725     0.308901169
77.9                 0.954815442     0.288982411    -0.0199584271    0.0659106004    -0.0199523788    0.0659130006      0.954654673     0.289494687
78.05                0.959918235     0.270070695    -0.0201677618    0.0716419403    -0.0201617129    0.0716440628      0.959762018     0.270604939
78.2                 0.964464891     0.251635672    -0.0202114134       0.0774168    -0.0202053992    0.0774186459      0.964314254     0.252189837
78.35                0.968499312     0.233638016    -0.0200929999    0.0832329596     -0.020087053    0.0832345338      0.968355108      0.23421027
78.5                 0.972059506     0.216041136    -0.0198156093    0.0890896732    -0.0198097598    0.0890909841      0.971922443     0.216629837
78.65                0.975178353     0.198810934    -0.0193817212    0.0949874132    -0.0193759963    0.0949884718      0.975049022     0.199414613
78.8                 0.977884239     0.181915579    -0.0187931526      0.10092766    -0.0187875769      0.10092848      0.977763134     0.182532918
78.95                0.980201595     0.165325299    -0.0180510215     0.106912731    -0.0180456169     0.106913327       0.98008913     0.165955114
79.1                 0.982151339     0.149012193    -0.0171557208      0.11294564    -0.0171505065      0.11294603      0.982047864      0.14965342
79.25                0.983751256     0.132950055    -0.0161068992     0.119029979    -0.0161018921     0.119030182      0.983657069     0.133601739
79.4                 0.985016311     0.117114226    -0.0149034454     0.125169828    -0.0148986596     0.125169863      0.984931669     0.117775506