! TOUCHSTONE file generated by CST MICROWAVE STUDIO
! Date and time: Mon Sep  2 13:02:55 2024
! Project name: MRI Body Coil 60cm 3T w phantom - wo meshrefiner - FD - Open Boundaries Add Space.cst
! Parameters = {C=17.8; C_tune_1=17.8; C_tune_2=17.8; Cs=9.73; L_tune=0; R_tune=40; Rs=1.09121; phantom_x_max=85; phantom_x_min=-85; phantom_y_max=-1.508; phantom_y_min=-31.508; phantom_z_max=360; phantom_z_min=240; state=21; state_2=8}
! Header version: 2024
! Port assignment regex: !\s*Touchstone port\s*([0-9]+)\s*=\s*(CST MWS port|CST DES external port|CST DES block port)\s*(.+)\s* \(\"(.*)\"\)(\s*mode\s*([0-9]+))?.*
! Touchstone port assignment:
! Touchstone port 1 = CST MWS port 1 ("")
! Touchstone port 2 = CST MWS port 5 ("")
! Touchstone port 3 = CST MWS port 10 ("")
! Touchstone port 4 = CST MWS port 11 ("")
! Touchstone port 5 = CST MWS port 12 ("")
! Touchstone port 6 = CST MWS port 13 ("")
! Touchstone port 7 = CST MWS port 14 ("")
! Touchstone port 8 = CST MWS port 15 ("")
! Touchstone port 9 = CST MWS port 16 ("")
! Touchstone port 10 = CST MWS port 17 ("")
# MHz S RI R 50
50                    0.86696876     -0.13458234     0.0754650021     0.473851453   0.000136396064 -0.000124585015   5.70421307e-05 -5.00255845e-05
                   5.2831924e-05 -4.78358247e-05   7.35294537e-05 -6.70141017e-05   0.000106657622 -9.69183256e-05   0.000148499958 -0.000134883709
                  0.000183966688 -0.000167645972   0.000185027883 -0.000170645432
                    0.0754650021     0.473851453      0.865891425    -0.141348286  -0.000137388683   0.00012586692  -5.74319662e-05   5.0569687e-05
                 -5.31265025e-05  4.82100114e-05   -7.3916969e-05  6.74595911e-05  -0.000107217534  9.74802135e-05  -0.000149242697  0.000135479215
                 -0.000184734576   0.00016794944  -0.000185369902  0.000170299624
                  0.000136396064 -0.000124585015  -0.000137388683   0.00012586692     -0.692340677     0.713137873    -0.0192684126   -0.0190156285
                  -0.00119635459  -0.00163780492  -0.000362004426 -0.000398025081   -0.00015755306 -0.000161376671  -8.33019447e-05 -8.32861923e-05
                 -5.01769494e-05 -4.96549861e-05  -3.32952195e-05 -3.24401226e-05
                  5.70421307e-05 -5.00255845e-05  -5.74319662e-05   5.0569687e-05    -0.0192684126   -0.0190156285     -0.692481951     0.712280986
                   -0.0191760712   -0.0189569581   -0.00119346204  -0.00164232805  -0.000360327905 -0.000399848905  -0.000157018704 -0.000162400127
                 -8.30148676e-05 -8.37771514e-05  -5.01910192e-05 -4.96639867e-05
                   5.2831924e-05 -4.78358247e-05  -5.31265025e-05  4.82100114e-05   -0.00119635459  -0.00163780492    -0.0191760712   -0.0189569581
                    -0.692343331     0.712315699    -0.0192515834   -0.0190193922    -0.0011921848  -0.00164436288    -0.0003604339 -0.000400396629
                 -0.000157022673  -0.00016241852  -8.32821775e-05 -8.32894257e-05
                  7.35294537e-05 -6.70141017e-05   -7.3916969e-05  6.74595911e-05  -0.000362004426 -0.000398025081   -0.00119346204  -0.00164232805
                   -0.0192515834   -0.0190193922      -0.69133497     0.713687675    -0.0192465954   -0.0189978658   -0.00119445981  -0.00164353392
                 -0.000360873555 -0.000400012599  -0.000157689817 -0.000161414297
                  0.000106657622 -9.69183256e-05  -0.000107217534  9.74802135e-05   -0.00015755306 -0.000161376671  -0.000360327905 -0.000399848905
                   -0.0011921848  -0.00164436288    -0.0192465954   -0.0189978658      -0.69196133     0.712895057    -0.0192027757   -0.0189679843
                  -0.00119308743   -0.0016432775  -0.000361687135 -0.000398146856
                  0.000148499958 -0.000134883709  -0.000149242697  0.000135479215  -8.33019447e-05 -8.32861923e-05  -0.000157018704 -0.000162400127
                   -0.0003604339 -0.000400396629   -0.00119445981  -0.00164353392    -0.0192027757   -0.0189679843     -0.692071527     0.712605122
                   -0.0192554885   -0.0190406035   -0.00119743343  -0.00164150455
                  0.000183966688 -0.000167645972  -0.000184734576   0.00016794944  -5.01769494e-05 -4.96549861e-05  -8.30148676e-05 -8.37771514e-05
                 -0.000157022673  -0.00016241852  -0.000360873555 -0.000400012599   -0.00119308743   -0.0016432775    -0.0192554885   -0.0190406035
                    -0.691980978       0.7128903    -0.0192735291   -0.0190086442
                  0.000185027883 -0.000170645432  -0.000185369902  0.000170299624  -3.32952195e-05 -3.24401226e-05  -5.01910192e-05 -4.96639867e-05
                 -8.32821775e-05 -8.32894257e-05  -0.000157689817 -0.000161414297  -0.000361687135 -0.000398146856   -0.00119743343  -0.00164150455
                   -0.0192735291   -0.0190086442     -0.692332559     0.713010413
50.15              0.00971818755     0.319256728      0.942125879   -0.0319905598  -0.000158914055 -0.000243434793  -6.25104407e-05 -0.000102199179
                 -5.75837247e-05 -0.000100741803  -7.54960255e-05 -0.000131351678  -0.000121643969  -0.00019805823  -0.000165127135 -0.000280959692
                 -0.000208220156 -0.000354459993  -0.000185066219 -0.000352676495
                     0.942125879   -0.0319905598   -0.00271674709     0.319691045   0.000164183015  0.000251764311    6.3841322e-05  0.000113335839
                  5.78939338e-05  0.000105284789   8.00883468e-05  0.000129253485   0.000120333901  0.000194838631   0.000163846834  0.000276161063
                    0.0001922054  0.000329931673   0.000179252834  0.000300510493
                 -0.000162912599 -0.000244290357   0.000163660264  0.000247255035     -0.690789106     0.714623257    -0.0193496348   -0.0190144872
                  -0.00120256276  -0.00163977264  -0.000363703291 -0.000398252324  -0.000158286173 -0.000161491647   -8.3714335e-05 -8.34058896e-05
                 -5.04417593e-05 -4.98055308e-05  -3.34916906e-05 -3.25710563e-05
                 -6.54519241e-05 -0.000102088624   6.57454231e-05   0.00010212478    -0.0193496324   -0.0190144887     -0.690932193     0.713763544
                   -0.0192568892   -0.0189559624   -0.00119964752  -0.00164433291  -0.000362005439 -0.000400100773  -0.000157748353 -0.000162490743
                 -8.34103663e-05 -8.38519457e-05  -5.04331279e-05 -4.97220074e-05
                 -6.28392587e-05 -9.48790516e-05   6.33282428e-05    9.546778e-05    -0.0012025552  -0.00163979656    -0.0192568897   -0.0189559621
                    -0.690793343     0.713797836    -0.0193327337    -0.019018304    -0.0011983916   -0.0016463768  -0.000362122359 -0.000400658263
                  -0.00015775177 -0.000162516197  -8.36725758e-05  -8.3350118e-05
                 -8.80887967e-05 -0.000132235921   8.87655254e-05   0.00013309245  -0.000363693462  -0.00039828126   -0.00119965817  -0.00164432226
                   -0.0193327159   -0.0190183228     -0.689779586     0.715170946    -0.0193276786   -0.0189967359    -0.0012006757  -0.00164557635
                 -0.000362554453 -0.000400311471  -0.000158426935  -0.00016151911
                 -0.000127284172 -0.000191856057   0.000128284136  0.000192998976  -0.000158291341  -0.00016149389  -0.000362014024 -0.000400098422
                  -0.00119839474  -0.00164638616    -0.0193276986   -0.0189967182     -0.690409074     0.714377713    -0.0192836956   -0.0189669482
                    -0.001199335  -0.00164539938  -0.000363390396 -0.000398447476
                 -0.000176782315 -0.000266782323   0.000178152928  0.000268203931  -8.37099624e-05 -8.34065439e-05  -0.000157751918 -0.000162491831
                 -0.000362124399 -0.000400653644   -0.00120067046  -0.00164556117     -0.019283694   -0.0189669436     -0.690520508     0.714087387
                   -0.0193367012    -0.019039672   -0.00120368736  -0.00164361718
                 -0.000216291033 -0.000325450538   0.000218223892  0.000326663609  -5.04441003e-05 -4.97922975e-05   -8.3412355e-05 -8.38487947e-05
                 -0.000157757448 -0.000162513148  -0.000362559379 -0.000400314859   -0.00119934786  -0.00164538313    -0.0193367143   -0.0190396716
                    -0.690428982     0.714373097    -0.0193547801   -0.0190075492
                 -0.000202248704 -0.000301911197   0.000204626239  0.000302638533   -3.3489886e-05 -3.25649009e-05  -5.04386922e-05 -4.97203719e-05
                  -8.3678909e-05 -8.33512336e-05  -0.000158418487 -0.000161508484  -0.000363391872 -0.000398453236   -0.00120368093  -0.00164360937
                   -0.0193547715   -0.0190075282     -0.690781473     0.714495304
50.3                 0.566027239     0.626258374      0.399105436    -0.357927435  -0.000134252176 -3.96933636e-05  -5.45906481e-05 -1.73255859e-05
                 -5.06094067e-05 -1.52935107e-05  -6.69878439e-05 -2.31603847e-05  -0.000102164475 -3.08146296e-05  -0.000141726601 -4.28695815e-05
                 -0.000170208625 -5.12835856e-05  -0.000144303954 -4.32830068e-05
                     0.399105436    -0.357927435      0.561186837     0.630599096    0.00013508144  4.03281549e-05   5.49392115e-05  1.76366471e-05
                  5.09898748e-05  1.54297532e-05   6.69037196e-05  2.26800991e-05   0.000102985992  3.08319846e-05   0.000142910878  4.26402007e-05
                  0.000171790015  5.04354729e-05   0.000146142184  4.15891437e-05
                 -0.000134252176 -3.96933636e-05    0.00013508144  4.03281549e-05      -0.68923568     0.716103895    -0.0194307835   -0.0190129965
                  -0.00120874473  -0.00164171579  -0.000365386704  -0.00039844419  -0.000159041854 -0.000161490185  -8.41352227e-05 -8.33631468e-05
                 -5.07300779e-05 -4.97302461e-05  -3.36921855e-05 -3.24993325e-05
                 -5.45906481e-05 -1.73255859e-05   5.49392115e-05  1.76366471e-05    -0.0194307835   -0.0190129965     -0.689380588     0.715241471
                   -0.0193376331   -0.0189546219   -0.00120584022  -0.00164630758  -0.000363699479 -0.000400290275  -0.000158485693 -0.000162512078
                 -8.38083093e-05 -8.38344676e-05  -5.06810002e-05 -4.96968305e-05
                 -5.06094067e-05 -1.52935107e-05   5.09898748e-05  1.54297532e-05   -0.00120874473  -0.00164171579    -0.0193376331   -0.0189546219
                    -0.689241512      0.71527534    -0.0194137953   -0.0190168677   -0.00120457736  -0.00164836261  -0.000363816126 -0.000400846087
                 -0.000158495419 -0.000162532705  -8.40695369e-05 -8.33331631e-05
                 -7.05444215e-05 -2.11172438e-05   7.11030871e-05  2.12087128e-05  -0.000365389882 -0.000398444337   -0.00120584696  -0.00164629561
                   -0.0194137734   -0.0190169062     -0.688222357     0.716649562    -0.0194086915   -0.0189952546   -0.00120688479   -0.0016475205
                 -0.000364280228 -0.000400469028  -0.000159173137 -0.000161517613
                 -0.000102164475 -3.08146296e-05   0.000102985992  3.08319846e-05  -0.000159041854 -0.000161490185  -0.000363699479 -0.000400290275
                  -0.00120457736  -0.00164836261    -0.0194087134   -0.0189952152     -0.688854986     0.715855731    -0.0193645571    -0.018965533
                  -0.00120553773   -0.0016472959  -0.000365108078 -0.000398587128
                 -0.000141726601 -4.28695815e-05   0.000142910878  4.26402007e-05  -8.41352227e-05 -8.33631468e-05  -0.000158485693 -0.000162512078
                 -0.000363816126 -0.000400846087   -0.00120687739  -0.00164753149    -0.0193645571    -0.018965533       -0.6889677     0.715565061
                   -0.0194178927   -0.0190383128   -0.00120992519  -0.00164547868
                 -0.000170208625 -5.12835856e-05   0.000171790015  5.04354729e-05  -5.07300779e-05 -4.97302461e-05  -8.38083093e-05 -8.38344676e-05
                 -0.000158495419 -0.000162532705  -0.000364276777 -0.000400467589   -0.00120553773   -0.0016472959    -0.0194178927   -0.0190383128
                    -0.688875072     0.715851421    -0.0194359914   -0.0190059599
                 -0.000144303954 -4.32830068e-05   0.000146142184  4.15891437e-05  -3.36921855e-05 -3.24993325e-05  -5.06810002e-05 -4.96968305e-05
                 -8.40695369e-05 -8.33331631e-05   -0.00015917121 -0.000161516097  -0.000365108078 -0.000398587128   -0.00120992519  -0.00164547868
                   -0.0194359914   -0.0190059599     -0.689228598     0.715975615
50.45                 0.73276664     0.551465235      0.242278788    -0.318356575  -8.93826459e-05 -9.19390939e-06  -3.55407035e-05 -4.17065315e-06
                 -3.09091729e-05 -3.17956144e-06  -4.18592683e-05 -6.04789603e-06  -6.32048329e-05 -6.99422705e-06  -8.63237597e-05 -9.52895257e-06
                 -9.99972045e-05 -1.28160615e-05  -7.06026562e-05 -1.03303139e-05
                     0.242278788    -0.318356575      0.730021435     0.555056774   8.88577178e-05  1.06750464e-05   3.40413545e-05    5.089042e-06
                  3.04939786e-05  3.47487237e-06    4.2017163e-05  6.26404635e-06   6.44493758e-05  6.23927333e-06   8.83309108e-05  7.96624246e-06
                  0.000105171885  6.70844259e-06   8.09849012e-05  2.71109436e-06
                 -8.92846406e-05 -9.97244046e-06   8.96591573e-05  1.04039778e-05     -0.687680336     0.717579979    -0.0195118557   -0.0190111546
                  -0.00121493202  -0.00164362737  -0.000367060816 -0.000398627798   -0.00015975451 -0.000161507526  -8.45079094e-05 -8.33526547e-05
                 -5.09500119e-05 -4.97090436e-05  -3.38351197e-05 -3.24764354e-05
                 -3.56082551e-05 -4.71508244e-06   3.59333403e-05  4.92092624e-06    -0.0195118562   -0.0190111465     -0.687827156     0.716714767
                   -0.0194183008   -0.0189529362   -0.00121203827  -0.00164825407  -0.000365371947 -0.000400486159   -0.00015920129  -0.00016254374
                 -8.41823276e-05 -8.38370762e-05  -5.09034088e-05 -4.96897898e-05
                  -3.2032945e-05 -3.82244576e-06   3.22919995e-05  3.89235373e-06   -0.00121493344  -0.00164362162    -0.0194182997    -0.018952938
                    -0.687687853     0.716748213    -0.0194947689   -0.0190150903      -0.00121077  -0.00165031985  -0.000365490083 -0.000401042575
                 -0.000159210273 -0.000162562374  -8.44416013e-05 -8.33321138e-05
                 -4.44487544e-05 -5.19700964e-06   4.48220163e-05  5.18476061e-06  -0.000367060351 -0.000398620737   -0.00121203927   -0.0016482407
                   -0.0194947534   -0.0190151422     -0.686663299     0.718123522     -0.019489626   -0.0189934173   -0.00121308366  -0.00164945514
                 -0.000365951432 -0.000400654437  -0.000159884783 -0.000161536153
                  -6.4391298e-05 -7.69023588e-06   6.49487296e-05  7.54024642e-06  -0.000159754321 -0.000161508529  -0.000365372432  -0.00040048726
                     -0.00121077  -0.00165031783    -0.0194896358   -0.0189933668     -0.687299084      0.71732913    -0.0194453192    -0.018963752
                  -0.00121172607  -0.00164922865  -0.000366775139 -0.000398755678
                 -8.91699176e-05 -1.07671784e-05   8.99792326e-05  1.02618425e-05  -8.45077198e-05 -8.33519328e-05  -0.000159201133 -0.000162544325
                  -0.00036549093 -0.000401042912   -0.00121308262  -0.00164947252    -0.0194453247   -0.0189637494     -0.687413013      0.71703815
                   -0.0194989421   -0.0190365726   -0.00121611904  -0.00164737616
                 -0.000105122057 -1.26569668e-05   0.000106241427  1.14225431e-05  -5.09520634e-05 -4.97089608e-05  -8.41826593e-05 -8.38373744e-05
                 -0.000159210982 -0.000162563297  -0.000365948837 -0.000400655109   -0.00121172692  -0.00164923025    -0.0194989451   -0.0190365827
                      -0.6873193     0.717325086    -0.0195170465   -0.0190040234
                 -7.96429585e-05 -9.86677125e-06   8.09719825e-05  7.77319895e-06  -3.38360058e-05 -3.24759945e-05  -5.09037055e-05 -4.96906045e-05
                 -8.44414295e-05 -8.33330685e-05  -0.000159883855 -0.000161533154  -0.000366774425 -0.000398756177   -0.00121612017  -0.00164737509
                   -0.0195170553   -0.0190040148     -0.687673812     0.717451369
50.6                 0.800336783     0.490692552      0.182344194    -0.293820579  -6.81945246e-05  -1.1851055e-06  -2.61267265e-05 -7.23198612e-07
                 -2.12997831e-05 -3.66027361e-07  -2.91346405e-05 -1.66378299e-06   -4.3846482e-05 -1.29417116e-06  -5.90704593e-05 -1.91027868e-06
                 -6.62422953e-05 -4.56038592e-06  -3.65094042e-05 -5.29788674e-06
                     0.182344194    -0.293820579      0.798397822     0.493799764   6.74650537e-05   3.1167922e-06   2.43390725e-05  2.15290175e-06
                  2.07297329e-05  8.45294284e-07   2.93789888e-05  1.95725243e-06   4.49887017e-05  2.14630515e-07   6.10562716e-05 -4.34073666e-07
                  7.13116256e-05 -3.86924756e-06    4.7571917e-05 -6.13401793e-06
                 -6.81864422e-05 -2.18278894e-06   6.84059649e-05  2.60595647e-06     -0.686123201     0.719051435    -0.0195928458   -0.0190089609
                  -0.00122112621  -0.00164551334  -0.000368732207 -0.000398804804  -0.000160466149 -0.000161531109  -8.48795739e-05  -8.3351635e-05
                 -5.11706406e-05 -4.97014976e-05  -3.39786044e-05 -3.24662658e-05
                 -2.62908303e-05  -1.3937621e-06   2.65503782e-05  1.57554872e-06    -0.0195928386   -0.0190089452     -0.686271914     0.718183432
                    -0.019498889   -0.0189509055   -0.00121824112  -0.00165017408  -0.000367044775  -0.00040067954   -0.00015991627 -0.000162577269
                 -8.45562934e-05 -8.38436182e-05  -5.11257605e-05 -4.96875167e-05
                 -2.27016136e-05 -9.21322297e-07   2.28943932e-05  9.80617144e-07   -0.00122112804  -0.00164550633    -0.0194988878   -0.0189509108
                    -0.686132387     0.718216452    -0.0195756571   -0.0190129752   -0.00121696954  -0.00165225246  -0.000367164089 -0.000401236946
                 -0.000159924685 -0.000162595217  -8.48135694e-05 -8.33350634e-05
                 -3.13048046e-05 -1.19991133e-06   3.15864405e-05   1.1646499e-06   -0.00036873084 -0.000398796298   -0.00121823796  -0.00165016023
                   -0.0195756524   -0.0190130315     -0.685102431     0.719592826    -0.0195704709   -0.0189912288    -0.0012192878  -0.00165137067
                 -0.000367624223 -0.000400842794  -0.000160596116 -0.000161559539
                 -4.53519543e-05 -1.87433315e-06   4.57803541e-05  1.67100272e-06  -0.000160466103 -0.000161532344  -0.000367045452 -0.000400680735
                   -0.0012169696  -0.00165225001    -0.0195704688   -0.0189911805     -0.685741348     0.718797923    -0.0195259843   -0.0189616319
                  -0.00121792317  -0.00165114633  -0.000368442333 -0.000398928925
                 -6.26769335e-05 -2.71564668e-06    6.3304633e-05   2.0981471e-06  -8.48792269e-05 -8.33508253e-05  -0.000159916181  -0.00016257797
                 -0.000367165178 -0.000401237207   -0.00121929045  -0.00165138882    -0.0195259892   -0.0189616253     -0.685856486      0.71850658
                   -0.0195798882   -0.0190345092   -0.00122232028  -0.00164926309
                 -7.23153868e-05 -3.18668611e-06   7.32059062e-05  1.74608499e-06  -5.11729933e-05  -4.9701007e-05  -8.45566558e-05 -8.38439286e-05
                 -0.000159925681 -0.000162596178  -0.000367622604 -0.000400843979   -0.00121792435  -0.00165114787    -0.0195798962   -0.0190345201
                     -0.68576171     0.718794103    -0.0195980083   -0.0190017631
                  -4.7127805e-05 -2.62668211e-06   4.82287032e-05  2.71411555e-07   -3.3979525e-05 -3.24655936e-05  -5.11262307e-05 -4.96883839e-05
                 -8.48134657e-05 -8.33361753e-05  -0.000160595083 -0.000161556294  -0.000368441651 -0.000398929666   -0.00122232139  -0.00164926157
                   -0.0195980152   -0.0190017499     -0.686117155     0.718922449
50.75                0.837994875     0.441998659       0.15121107    -0.283127931  -5.64228176e-05  1.92650204e-06  -2.05893178e-05   5.6788376e-07
                 -1.55983076e-05  5.39089999e-07  -2.14118564e-05 -9.00417744e-08   -3.2115781e-05  5.68157291e-07  -4.27092414e-05   3.9818488e-07
                 -4.61201384e-05 -2.23557411e-06  -1.65445503e-05  -4.9320339e-06
                      0.15121107    -0.283127931      0.836481948     0.444817224   5.57053258e-05  2.20724261e-07   1.88486695e-05  1.13207194e-06
                  1.50177303e-05  4.27753646e-08   2.16370932e-05  3.59871286e-07   3.31088676e-05 -1.77707543e-06   4.45504595e-05 -3.23821214e-06
                  5.06705618e-05 -7.27601912e-06   2.68640523e-05 -8.60238708e-06
                 -5.64722535e-05  8.66606618e-07   5.66367662e-05 -4.25914696e-07     -0.684564264     0.720518252    -0.0196737473   -0.0190064183
                  -0.00122732683   -0.0016473751  -0.000370402991 -0.000398975244   -0.00016117824 -0.000161554677  -8.52517882e-05 -8.33526595e-05
                 -5.13925839e-05 -4.96973943e-05  -3.41233066e-05 -3.24595749e-05
                 -2.08022157e-05 -1.31188383e-07   2.10057476e-05   3.2355035e-07    -0.0196737301   -0.0190064033     -0.684714884     0.719647472
                   -0.0195793938   -0.0189485317   -0.00122444876  -0.00165206882  -0.000368718109 -0.000400867527    -0.0001606314 -0.000162609451
                 -8.49305641e-05 -8.38503474e-05  -5.13485124e-05 -4.96860789e-05
                 -1.69916848e-05  1.00928498e-07   1.71414055e-05 -3.81275357e-08   -0.00122732868  -0.00164736832    -0.0195793953   -0.0189485407
                    -0.684575131      0.71968006    -0.0196564621    -0.019010523   -0.00122317555  -0.00165416121  -0.000368838544 -0.000401426159
                  -0.00016063943 -0.000162627042  -8.51859019e-05  -8.3338179e-05
                 -2.32227077e-05  1.89619801e-07   2.34487062e-05 -2.31341214e-07  -0.000370401811 -0.000398967072   -0.00122444309  -0.00165205543
                   -0.0196564672   -0.0190105764     -0.683539768     0.721057477     -0.019651224   -0.0189886998   -0.00122549807  -0.00165326423
                 -0.000369298263 -0.000401027143  -0.000161307928 -0.000161582433
                 -3.36378427e-05  1.50266264e-07   3.39883713e-05 -3.84732076e-07  -0.000161178297 -0.000161555925  -0.000368718796 -0.000400868644
                  -0.00122317561  -0.00165415887    -0.0196512161   -0.0189886586     -0.684181775     0.720262062    -0.0196065624   -0.0189591773
                  -0.00122412756  -0.00165304301  -0.000370110552 -0.000399099052
                 -4.63710648e-05   6.9498329e-08   4.68890451e-05 -7.70894816e-07  -8.52513819e-05 -8.33518994e-05  -0.000160631365  -0.00016261013
                 -0.000368839672  -0.00040142633   -0.00122550261  -0.00165328134    -0.0196065648   -0.0189591699     -0.684298165     0.719970362
                   -0.0196607507   -0.0190321155   -0.00122852881  -0.00165113044
                 -5.20713594e-05 -4.66502749e-08   5.28156499e-05 -1.57392146e-06  -5.13948123e-05 -4.96966728e-05  -8.49308754e-05 -8.38506431e-05
                 -0.000160640488 -0.000162627905  -0.000369297345 -0.000401028435    -0.0012241288  -0.00165304417    -0.0196607606   -0.0190321246
                    -0.684202323     0.720258476    -0.0196788872   -0.0189991691
                  -2.6880767e-05 -8.10020408e-07   2.78376144e-05 -1.80447175e-06  -3.41241087e-05 -3.24588388e-05  -5.13490246e-05 -4.96868489e-05
                 -8.51858255e-05 -8.33392383e-05  -0.000161306802 -0.000161579342  -0.000370110012 -0.000399099868   -0.00122852971  -0.00165112876
                   -0.0196788913   -0.0189991552     -0.684558697     0.720388871
50.9                 0.862884735     0.399449292      0.131671978    -0.280935551  -4.91038369e-05  3.44996853e-06  -1.68831045e-05   1.1410657e-06
                 -1.16958082e-05  8.46701417e-07  -1.60216978e-05  5.46133044e-07  -2.39158691e-05  1.18961964e-06   -3.1369502e-05  1.03497405e-06
                 -3.22031727e-05 -1.70604481e-06  -2.86720343e-06 -5.73630502e-06
                     0.131671978    -0.280935551      0.861642223     0.402089778   4.84593841e-05 -1.19920339e-06   1.52898069e-05  6.96204177e-07
                  1.11498218e-05 -2.09545278e-07   1.61883874e-05 -3.17467573e-07   2.47671965e-05 -2.44309996e-06   3.30391946e-05 -4.22519978e-06
                  3.61997867e-05 -8.33843434e-06   1.20853853e-05 -9.02052059e-06
                  -4.9183229e-05  2.38670888e-06   4.93344334e-05 -1.92153103e-06      -0.68300354     0.721980432    -0.0197545569   -0.0190035336
                  -0.00123353352  -0.00164921308  -0.000372073843 -0.000399139238  -0.000161890614 -0.000161576571  -8.56243873e-05 -8.33537092e-05
                  -5.1615278e-05 -4.96941924e-05  -3.42687222e-05 -3.24540016e-05
                 -1.71191626e-05  4.44570726e-07   1.72786135e-05 -2.25966535e-07    -0.0197545346   -0.0190035249     -0.683156086     0.721106903
                    -0.019659813   -0.0189458179   -0.00123066137  -0.00165393903  -0.000370391753 -0.000401049443  -0.000161346613 -0.000162639415
                 -8.53049778e-05 -8.38562974e-05  -5.15714801e-05 -4.96844643e-05
                 -1.29748017e-05  4.96494544e-07   1.30929583e-05 -4.24365403e-07   -0.00123353524  -0.00164920711    -0.0196598194   -0.0189458284
                    -0.683016108     0.721139038    -0.0197371841   -0.0190077333   -0.00122938776  -0.00165604633  -0.000370513305 -0.000401609423
                 -0.000161354349 -0.000162656765  -8.55584082e-05 -8.33404785e-05
                 -1.75028446e-05  7.09812805e-07   1.76896842e-05 -7.52697675e-07  -0.000372073074 -0.000399132045   -0.00123065446  -0.00165392672
                   -0.0197371958   -0.0190077797     -0.681975328     0.722517473    -0.0197318893   -0.0189858351   -0.00123171443  -0.00165513494
                 -0.000370972976 -0.000401205945  -0.000162019974 -0.000161603448
                 -2.53418878e-05  9.08436421e-07   2.56374764e-05 -1.16811207e-06  -0.000161890729 -0.000161577758  -0.000370392372  -0.00040105044
                  -0.00122938778  -0.00165604429    -0.0197318799   -0.0189858008     -0.682620423     0.721721532    -0.0196870565   -0.0189563871
                  -0.00123033853  -0.00165491723  -0.000371779384 -0.000399264064
                  -3.4817779e-05  1.09473776e-06    3.5256655e-05 -1.87559799e-06  -8.56239744e-05 -8.33530361e-05   -0.00016134661 -0.000162640022
                 -0.000370514391 -0.000401609523   -0.00123171981  -0.00165515035     -0.019687057   -0.0189563808      -0.68273807     0.721429503
                   -0.0197415315   -0.0190293861   -0.00123474393  -0.00165297587
                 -3.76814233e-05  9.90693503e-07   3.83119639e-05 -2.79258182e-06  -5.16172488e-05 -4.96933622e-05  -8.53052222e-05 -8.38565741e-05
                 -0.000161355368 -0.000162657509  -0.000370972547 -0.000401207203   -0.00123033968  -0.00165491794    -0.0197415415   -0.0190293932
                    -0.682641157     0.721718208    -0.0197596834   -0.0189962376
                 -1.23162142e-05  -7.2458501e-07   1.31557995e-05 -2.16527925e-06   -3.4269376e-05 -3.24532825e-05  -5.15719687e-05 -4.96851038e-05
                 -8.55583313e-05 -8.33414142e-05  -0.000162018828 -0.000161600639  -0.000371778995 -0.000399264878   -0.00123474459  -0.00165297418
                   -0.0197596852   -0.0189962249     -0.682998457     0.721850652
51.05                0.880911915     0.359785269      0.117567818    -0.284487282  -4.42282532e-05  4.33045144e-06  -1.41745359e-05  1.41076374e-06
                 -8.74924909e-06  9.12870472e-07  -1.18723408e-05  7.76040815e-07  -1.75999635e-05  1.29108737e-06  -2.27032131e-05   9.9436323e-07
                 -2.15683992e-05 -1.87885321e-06    7.5253156e-06 -6.89046677e-06
                     0.117567818    -0.284487282       0.87986313     0.362315478   4.36799532e-05 -2.03668566e-06   1.27654044e-05  4.86801816e-07
                  8.25508329e-06  -2.4821512e-07   1.19697353e-05 -5.87817623e-07   1.83221268e-05 -2.54670119e-06   2.41898401e-05 -4.44340801e-06
                  2.50237636e-05 -8.40421316e-06   4.80721663e-07  -8.5712604e-06
                 -4.43211308e-05   3.2923532e-06   4.44798762e-05 -2.79798123e-06     -0.681441042     0.723437977    -0.0198352758   -0.0190003124
                  -0.00123974606  -0.00165102742  -0.000373744909 -0.000399296897  -0.000162603101 -0.000161596202  -8.59971981e-05 -8.33540446e-05
                 -5.18383908e-05 -4.96909958e-05  -3.44145443e-05 -3.24487047e-05
                 -1.44214202e-05  7.29529683e-07   1.45470061e-05 -4.75938177e-07    -0.0198352542   -0.0190003099     -0.681595494     0.722561744
                   -0.0197401461    -0.018942767   -0.00123687912  -0.00165578517  -0.000372065583 -0.000401225059  -0.000162061828 -0.000162666844
                 -8.56794278e-05  -8.3861122e-05  -5.17945395e-05 -4.96823124e-05
                  -9.8711228e-06  6.22011741e-07   9.96433713e-06 -5.37052611e-07   -0.00123974759  -0.00165102251    -0.0197401571   -0.0189427755
                    -0.681455352     0.722593398    -0.0198178226   -0.0190046059     -0.001235606  -0.00165790789  -0.000372188263 -0.000401786461
                 -0.000162069314 -0.000162684001  -8.59309597e-05 -8.33416147e-05
                 -1.30541228e-05  8.54293088e-07   1.32104661e-05 -8.96000574e-07  -0.000373744489 -0.000399290859   -0.00123687185  -0.00165577428
                   -0.0198178373   -0.0190046439     -0.680409127     0.723972817    -0.0198124694   -0.0189826348   -0.00123793675  -0.00165698245
                 -0.000372648065 -0.000401378691   -0.00016273208 -0.000161622094
                 -1.88845267e-05  1.11780205e-06   1.91367002e-05  -1.4012393e-06  -0.000162603246 -0.000161597298  -0.000372066103 -0.000401225929