! TOUCHSTONE file generated by CST MICROWAVE STUDIO
! Date and time: Wed Aug 21 09:14:22 2024
! Project name: MRI Body Coil 60cm 3T w phantom - wo meshrefiner - FD - Open Boundaries Add Space.cst
! Parameters = {C=17.8; C_tune_1=17.8; C_tune_2=17.8; Cs=9.73; L_tune=0; R_tune=40; Rs=1.09121; phantom_x_max=85; phantom_x_min=-85; phantom_y_max=-1.508; phantom_y_min=-31.508; phantom_z_max=360; phantom_z_min=240; state=21; state_2=8}
! Header version: 2024
! Port assignment regex: !\s*Touchstone port\s*([0-9]+)\s*=\s*(CST MWS port|CST DES external port|CST DES block port)\s*(.+)\s* \(\"(.*)\"\)(\s*mode\s*([0-9]+))?.*
! Touchstone port assignment:
! Touchstone port 1 = CST MWS port 1 ("")
! Touchstone port 2 = CST MWS port 5 ("")
# MHz S RI R 50
50                    0.16839168    -0.235474787      0.778864273     0.556333686      0.778864273     0.556333686      0.168181951    -0.235624794
50.15                0.434651997     0.641782974      0.523373652    -0.353908268      0.523373652    -0.353908268      0.433750173     0.642392684
50.3                  0.69269067     0.581015873      0.275339108    -0.327260859      0.275339108     -0.32726086      0.692019801     0.581813524
50.45                0.780971422      0.51430277      0.195330577    -0.295882972      0.195330577    -0.295882972       0.78042073     0.515135766
50.6                 0.825987827     0.462463423      0.157589008    -0.281126553      0.157589008    -0.281126553      0.825515857      0.46330532
50.75                0.854410087     0.418500738      0.135394416    -0.276484966      0.135394416    -0.276484965      0.853998802     0.419343137
50.9                 0.874553829     0.378363973      0.120231929    -0.278325329      0.120231929    -0.278325328      0.874193875      0.37920307
51.05                0.889690922     0.339817575      0.108534925    -0.284846033      0.108534925    -0.284846032      0.889376894     0.340651197
51.2                 0.901258076     0.301484151     0.0984582953    -0.295162786     0.0984582951    -0.295162786      0.900986688     0.302310838
51.35                0.909862425     0.262395045     0.0888367861    -0.308886984     0.0888367859    -0.308886984      0.909631722     0.263213687
51.5                  0.91564557     0.221774427     0.0787674926    -0.325928879     0.0787674924    -0.325928879      0.915454555     0.222584077
51.65                0.918413264     0.178928954     0.0673988317    -0.346397433     0.0673988315    -0.346397433      0.918261754     0.179728697
51.8                 0.917656247     0.133191665     0.0537859134    -0.370540945     0.0537859133    -0.370540945      0.917544833     0.133980486
51.95                 0.91250136    0.0839038189     0.0367537079    -0.398697912     0.0367537079    -0.398697912      0.912431456     0.084680433
52.1                 0.901599422    0.0304402978     0.0147346519    -0.431230103     0.0147346519    -0.431230103      0.901573379    0.0312028964
52.25                0.882941911   -0.0276919098     -0.014445094    -0.468396356    -0.0144450939    -0.468396356       0.88296316   -0.0269460697
52.4                 0.853597602   -0.0906140204    -0.0538483113    -0.510091888    -0.0538483113    -0.510091888      0.853670795   -0.0898892953
52.55                0.809389674    -0.157558566     -0.107762167    -0.555312269     -0.107762167    -0.555312269      0.809520665    -0.156862053
52.7                 0.744649661    -0.225834086     -0.181951408    -0.601096789     -0.181951408    -0.601096789      0.744844927    -0.225177423
52.85                 0.65252215     -0.28894357     -0.283353172    -0.640620049     -0.283353172     -0.64062005      0.652786759    -0.288345496
53                   0.527055508    -0.333791389     -0.417971228    -0.660367356     -0.417971228    -0.660367356      0.527387863    -0.333280179
53.15                0.369275427    -0.338557177     -0.584767357    -0.637987306     -0.584767357    -0.637987306      0.369657069     -0.33816917
53.3                 0.197974653    -0.277057516     -0.764846362    -0.546670359     -0.764846362    -0.546670358      0.198358604    -0.276823583
53.45               0.0560496847    -0.137503898     -0.915199041    -0.373915855     -0.915199041    -0.373915855     0.0563646929    -0.137421058
53.6              -0.00813514995    0.0538256761      -0.98749357    -0.144975137     -0.987493569    -0.144975137   -0.00794790317    0.0538113618
53.75               0.0208480805      0.23997209     -0.966336564    0.0850426871     -0.966336563    0.0850426872     0.0208997667     0.239937169
53.9                 0.115784237     0.374112043     -0.878479994     0.272376302     -0.878479994     0.272376302      0.115736499     0.374110015
54.05                0.236052316      0.44207609      -0.76311283     0.407599872     -0.763112829     0.407599872      0.235951337     0.442124184
54.2                 0.352258285     0.450497129     -0.646298671     0.505198036     -0.646298671     0.505198036      0.352140253     0.450589174
54.35                0.447891496     0.407998571     -0.536062207     0.588023382     -0.536062207     0.588023382      0.447780311     0.408117876
54.5                 0.507490491     0.313846789     -0.422594455     0.682424078     -0.422594455     0.682424078      0.507401023       0.3139701
54.65                0.487642481     0.154321665     -0.260052785       0.8191903     -0.260052785     0.819190301      0.487579394      0.15441487
54.8                 0.225283474   -0.0282422169      0.119329653     0.966579536      0.119329654     0.966579536      0.225224405   -0.0282277873
54.95               -0.269873445     0.352994098      0.711473448     0.544315071      0.711473448     0.544315071     -0.270042766     0.352864872
55.1                0.0571725313     0.882620202      0.465205917   -0.0300081749      0.465205917   -0.0300081746     0.0567673139     0.882619271
55.25                0.397752805     0.892886007      0.192403284   -0.0856694626      0.192403285   -0.0856694625      0.397369501     0.893048994
55.4                 0.569495855     0.816418095      0.078359268   -0.0546345591      0.078359268   -0.0546345591      0.569171698     0.816644155
55.55                0.667145155     0.743874306     0.0302537629   -0.0271063258     0.0302537629   -0.0271063257      0.666867544     0.744123886
55.7                 0.731004691     0.682326283    0.00932828245   -0.0099574002    0.00932828239  -0.00995740003      0.730762184     0.682583745
55.85                0.777025236     0.629469445    0.00078776849 -0.000920662877   0.000787768409 -0.000920662645       0.77681386     0.629730282
56                   0.812534393     0.582913252   -0.00165164649    0.0023743894   -0.00165164657   0.00237438968      0.812348547      0.58317222
56.15                  0.8411589      0.54078804  -0.000944450087   0.00156615842  -0.000944450161   0.00156615873      0.840995452     0.541042188
56.3                 0.864974193     0.501816346    0.00140258125  -0.00229077154    0.00140258119  -0.00229077119      0.864830846      0.50206335
56.45                0.885250966     0.465082599    0.00456788616  -0.00853297969    0.00456788612  -0.00853297931      0.885108192     0.465311113
56.6                 0.902724212     0.429856658    0.00807464777   -0.0167548462    0.00807464775   -0.0167548458       0.90259436     0.430073096
56.75                0.917956801     0.395608274     0.0116255319   -0.0267252078     0.0116255318   -0.0267252074      0.917838586      0.39581104
56.9                 0.931297473     0.361875784     0.0150159827   -0.0383366793     0.0150159827   -0.0383366788      0.931189764      0.36206324
57.05                0.942969424     0.328250449     0.0180846533   -0.0515754348     0.0180846533   -0.0515754344      0.942871172     0.328420854
57.2                 0.953097772     0.294349875     0.0206816281   -0.0665039697     0.0206816281   -0.0665039693      0.953007937     0.294501329
57.35                0.961721702     0.259797549     0.0226444756   -0.0832523857     0.0226444757   -0.0832523852      0.961639189     0.259927943
57.5                 0.968795234     0.224205905     0.0237762182    -0.102015488     0.0237762184    -0.102015488      0.968718821     0.224312861
57.65                0.974177609     0.187161465     0.0238208543    -0.123053873     0.0238208545    -0.123053873      0.974105856     0.187242279
57.8                  0.97761212     0.148211664     0.0224322224    -0.146697391     0.0224322226     -0.14669739      0.977543257      0.14826324
57.95                0.978690114     0.106854189     0.0191311354    -0.173348843     0.0191311356    -0.173348842      0.978621888     0.106872968
58.1                 0.976794369    0.0625318512     0.0132438772    -0.203484053     0.0132438775    -0.203484053      0.976723841    0.0625137435
58.25                0.971012779    0.0146401471    0.00381228431    -0.237640602     0.0038122846    -0.237640602      0.970936031    0.0145804771
58.4                 0.960009364   -0.0374370434    -0.0105380594    -0.276379378     -0.010538059    -0.276379378      0.959921097   -0.0375435558
58.55                0.941836497   -0.0942316692    -0.0317880159    -0.320186659    -0.0317880155    -0.320186659      0.941729473   -0.0943908402
58.7                 0.913675563    -0.155971565    -0.0627865944    -0.369252317     -0.062786594    -0.369252316      0.913539836    -0.156189499
58.85                0.871520942    -0.222113975     -0.107569549    -0.423001197     -0.107569548    -0.423001196      0.871342849     -0.22239647
59                   0.809922728    -0.290420757     -0.171619437    -0.479164883     -0.171619437    -0.479164883      0.809683666    -0.290772092
59.15                0.722186259    -0.355291938      -0.26166796    -0.532108814      -0.26166796    -0.532108814      0.721861431    -0.355712614
59.3                 0.602044778    -0.405284896     -0.384020061    -0.570340695     -0.384020061    -0.570340695      0.601602455    -0.405767766
59.45                0.448596621    -0.421022238     -0.539599632    -0.574407663     -0.539599632    -0.574407663      0.447999202    -0.421546386
59.6                 0.275317753    -0.377943471     -0.714901969    -0.519658633     -0.714901969    -0.519658633      0.274527677    -0.378465763
59.75                0.116833109    -0.260417141      -0.87520495    -0.390416618      -0.87520495    -0.390416618      0.115829183    -0.260865735
59.9                0.0175824887   -0.0823339991     -0.975974054    -0.200635604     -0.975974054    -0.200635604     0.0163862118   -0.0826188824
60.05              0.00123590286     0.112265367     -0.993554944   0.00552985563     -0.993554944   0.00552985582  -7.73843776e-05     0.112214246
60.2                0.0548871793     0.278720615     -0.940953238     0.183381067     -0.940953238     0.183381067     0.0535564632     0.278918052
60.35                0.146498916     0.396812124     -0.850279328      0.31274366     -0.850279327      0.31274366      0.145230995     0.397222568
60.5                 0.248244589     0.468803601     -0.749375771     0.395938634     -0.749375771     0.395938634      0.247082452      0.46937137
60.65                0.344488158     0.506062982     -0.653868915     0.444368837     -0.653868915     0.444368837      0.343444548     0.506735893
60.8                 0.429122497     0.520077687     -0.569854775     0.469538434     -0.569854775     0.469538434      0.428193197     0.520815795
60.95                  0.5011311       0.5195028     -0.498343606     0.480111552     -0.498343606     0.480111551      0.500304801     0.520278387
61.1                 0.561614025     0.510127834     -0.438232923     0.481884818     -0.438232923     0.481884818      0.560877693     0.510922601
61.25                0.612293958     0.495620835     -0.387799463     0.478533464     -0.387799463     0.478533464      0.611635235     0.496423017
61.4                 0.654887177      0.47824737     -0.345326925     0.472330705     -0.345326925     0.472330705      0.654295232     0.479049529
61.55                0.690887308      0.45938882     -0.309321559      0.46466595     -0.309321559      0.46466595      0.690352987     0.460186323
61.7                 0.721523186     0.439879606     -0.278554022     0.456381868     -0.278554022     0.456381868      0.721038872     0.440669619
61.85                0.747781019     0.420217701     -0.252037113     0.447984789     -0.252037113     0.447984789      0.747340411     0.420998544
62                   0.770444529     0.400694075       -0.2289856     0.439774089     -0.228985599     0.439774089      0.770042419     0.401464804
62.15                0.790135257      0.38147209     -0.208775917     0.431921555     -0.208775917     0.431921555      0.789767326      0.38223223
62.3                 0.807347194     0.362636352     -0.190911538     0.424520247     -0.190911538     0.424520246      0.807009846     0.363385718
62.45                0.822474716     0.344222947     -0.174995046     0.417614742     -0.174995046     0.417614742       0.82216494     0.344961537
62.6                 0.835834446     0.326238282     -0.160706264     0.411220006     -0.160706264     0.411220006      0.835549705     0.326966199
62.75                0.847682148     0.308670876      -0.14778535     0.405333205      -0.14778535     0.405333205      0.847420295     0.309388279
62.9                 0.858225712      0.29149877     -0.136019801     0.399941156     -0.136019801     0.399941156      0.857984916     0.292205844
63.05                0.867635129     0.274694188     -0.125234445     0.395025007     -0.125234445     0.395025007      0.867413821      0.27539112
63.2                 0.876050184     0.258226449     -0.115283726     0.390563195     -0.115283726     0.390563195       0.87584701     0.258913419
63.35                0.883586406     0.242063776     -0.106045713     0.386533272     -0.106045713     0.386533272      0.883400192     0.242740943
63.5                 0.890339689     0.226174389    -0.0974174319     0.382913043    -0.0974174319     0.382913043      0.890169413     0.226841886
63.65                0.896389916     0.210527145    -0.0893111998     0.379681228    -0.0893111998     0.379681228       0.89623468     0.211185076
63.8                 0.901803797     0.195091885    -0.0816517218     0.376817849    -0.0816517218     0.376817849      0.901662809     0.195740323
63.95                0.906637117     0.179839596    -0.0743737813     0.374304418    -0.0743737813     0.374304418      0.906509676     0.180478579
64.1                 0.910936516      0.16474245    -0.0674203839     0.372124009    -0.0674203839     0.372124009      0.910821995     0.165371981
64.25                0.914740906     0.149773773    -0.0607412538     0.370261267    -0.0607412538     0.370261267      0.914638743      0.15039382
64.4                 0.918082608     0.134907967    -0.0542916064     0.368702352    -0.0542916064     0.368702352      0.917992295      0.13551846
64.55                0.920988254     0.120120409    -0.0480311356     0.367434877    -0.0480311356     0.367434877      0.920909327     0.120721242
64.7                 0.923479509     0.105387334    -0.0419231695      0.36644782    -0.0419231695      0.36644782      0.923411543     0.105978359
64.85                0.925573648    0.0906857097    -0.0359339594     0.365731433    -0.0359339594     0.365731433      0.925516248    0.0912667386
65                   0.927284004    0.0759931131    -0.0300320718      0.36527715    -0.0300320718      0.36527715      0.927236801    0.0765639173
65.15                0.928620328    0.0612876113    -0.0241878623      0.36507749    -0.0241878623      0.36507749      0.928582971    0.0618479174
65.3                 0.929589046    0.0465476413    -0.0183730113     0.365125972    -0.0183730113     0.365125972      0.929561199      0.04709713
65.45                0.930193455    0.0317518982    -0.0125601076     0.365417019    -0.0125601076     0.365417019      0.930174791    0.0322902012
65.6                 0.930433851    0.0168792284    -0.0067222673     0.365945871   -0.00672226729     0.365945871      0.930424047    0.0174059255
65.75                0.930307597    0.0019085294  -0.000832776239     0.366708496  -0.000832776236     0.366708496      0.930306326   0.00242314527
65.9                 0.929809132   -0.0131813425      0.005135252     0.367701497      0.005135252     0.367701497      0.929816062   -0.0126793429
66.05                0.928929937   -0.0284116575     0.0112092119     0.368922014     0.0112092119     0.368922014      0.928944724   -0.0279228734
66.2                 0.927658446   -0.0438038872     0.0174173429     0.370367621     0.0174173429     0.370367621      0.927680725   -0.0433289873
66.35                0.925979897   -0.0593797695      0.023789075     0.372036209      0.023789075     0.372036209      0.926009276   -0.0589194981
66.5                 0.923876142   -0.0751613601     0.0303553899     0.373925851     0.0303553899     0.373925851      0.923912197    -0.074716544
66.65                0.921325392   -0.0911710671     0.0371492061     0.376034651     0.0371492061     0.376034651      0.921367652   -0.0907426233
66.8                 0.918301897    -0.107431666     0.0442057941      0.37836056     0.0442057941      0.37836056      0.918349838    -0.107020611
66.95                0.914775568    -0.123966288     0.0515632313     0.380901154     0.0515632313     0.380901154      0.914828599    -0.123573746
67.1                 0.910711511    -0.140798375     0.0592629036      0.38365336     0.0592629036      0.38365336      0.910768958     -0.14042559
67.25                0.906069484    -0.157951588      0.067350065      0.38661313      0.067350065      0.38661313      0.906130574    -0.157599937
67.4                 0.900803252    -0.175449663     0.0758744629     0.389775018     0.0758744629     0.389775018       0.90086709    -0.175120668
67.55                0.894859839     -0.19331619     0.0848910407     0.393131668     0.0848910407     0.393131669      0.894925384    -0.193011533
67.7                 0.888178649    -0.211574293     0.0944607292     0.396673157     0.0944607292     0.396673157      0.888244684    -0.211295834
67.85                0.880690454    -0.230246188      0.104651335     0.400386172      0.104651335     0.400386172      0.880755547    -0.229995978
68                   0.872316226    -0.249352569       0.11553854     0.404252971       0.11553854     0.404252971      0.872378688    -0.249132876
68.15                0.862965796    -0.268911788       0.12720701     0.408250061       0.12720701     0.408250061      0.863023623    -0.268725111
68.3                 0.852536324    -0.288938744      0.139751633     0.412346519      0.139751633     0.412346519      0.852587135    -0.288787834
68.45                0.840910583    -0.309443412      0.153278854     0.416501851      0.153278854     0.416501851      0.840951534    -0.309331293
68.6                 0.827955032    -0.330428901      0.167908115     0.420663264      0.167908115     0.420663264      0.827982719    -0.330358884
68.75                0.813517719    -0.351888887      0.183773334      0.42476219      0.183773334      0.42476219      0.813528055    -0.351864585
68.9                  0.79742604    -0.373804267      0.201024361     0.428709842      0.201024361     0.428709842      0.797414103    -0.373829599
69.05                0.779484447    -0.396138796      0.219828256     0.432391559      0.219828256     0.432391559      0.779444294    -0.396217974
69.2                 0.759472255    -0.418833425      0.240370189       0.4356596      0.240370189       0.4356596      0.759396697    -0.418970929
69.35                0.737141812    -0.441799046      0.262853589     0.438324031      0.262853589     0.438324031      0.737022134    -0.441999554
69.5                 0.712217459    -0.464907223      0.287499014     0.440141228      0.287499014     0.440141228       0.71204308    -0.465175504
69.65                0.684395905    -0.487978557      0.314540914      0.44079954      0.314540914      0.44079954      0.684153965    -0.488319283
69.8                  0.65334902     -0.51076829      0.344221062     0.439901642      0.344221062     0.439901642      0.653023892    -0.511185743
69.95                0.618730449    -0.532948977      0.376776907     0.436943251      0.376776907     0.436943251      0.618303164    -0.533446604
70.1                 0.580188063    -0.554090386      0.412422347     0.431288273      0.412422347     0.431288273       0.57963565    -0.554670133
70.25                0.537384887    -0.573637585       0.45131757     0.422141163       0.45131757     0.422141163      0.536679664    -0.574298931
70.4                 0.490031838     -0.59088952      0.493523653     0.408518707      0.493523653     0.408518707      0.489140692    -0.591628099
70.55                 0.43793584    -0.604982656      0.538936856     0.389225749      0.538936856     0.389225749      0.436819611    -0.605788331
70.7                 0.381066214    -0.614887592       0.58719755     0.362842923       0.58719755     0.362842923      0.379679368    -0.615741847
70.85                0.319639439    -0.619431035      0.637570508     0.327739326      0.637570508     0.327739326      0.317930316    -0.620303561
71                   0.254215806    -0.617360206      0.688798277     0.282128589      0.688798276     0.282128589      0.252127888    -0.618204631
71.15                0.185789328    -0.607469329      0.738939148     0.224191067      0.738939148     0.224191067      0.183264095    -0.608218214
71.3                 0.115833716    -0.588803446      0.785216339     0.152283745      0.785216339     0.152283745      0.112815764    -0.589362918
71.45               0.0462450143    -0.560936012      0.823921959    0.0652474011      0.823921959    0.0652474011     0.0426900586    -0.561180786
71.6               -0.0208945842    -0.524276227      0.850428461    -0.037206306      0.850428461   -0.0372063059    -0.0250083906    -0.524046098
71.75              -0.0837992092    -0.480298767      0.859344893     -0.15408033      0.859344893    -0.154080329    -0.0884565729    -0.479397813
71.9                -0.141722797    -0.431515238       0.84480285    -0.282719035       0.84480285    -0.282719035     -0.146853245    -0.429714875
72.05               -0.195869407    -0.380948104      0.800784706    -0.418492248      0.800784706    -0.418492248     -0.201325347    -0.377995192
72.2                 -0.25020811    -0.330842209      0.721397986    -0.554384455      0.721397986    -0.554384455     -0.255736804    -0.326474932
72.35               -0.311655295    -0.280362884      0.601234327    -0.680085342      0.601234327    -0.680085342     -0.316861357    -0.274342938
72.5                 -0.38851808     -0.22221937      0.436693001    -0.780125491      0.436693001     -0.78012549     -0.392818858    -0.214401851
72.65               -0.485089953    -0.139287975      0.230447886    -0.831689662      0.230447887    -0.831689662     -0.487695387    -0.129765198
72.8                -0.590445642  -0.00616934651    0.00128445709    -0.806755156    0.00128445715    -0.806755156     -0.590466305   0.00449969303
72.95               -0.667479416      0.19439902     -0.206422231    -0.688311454     -0.206422231    -0.688311454     -0.664315474     0.205026158
73.1                -0.665432231     0.442413432     -0.336289105    -0.498426811     -0.336289105     -0.49842681     -0.659331538     0.451476491
73.25               -0.563942527      0.67862361     -0.363881165    -0.298951491     -0.363881165     -0.29895149     -0.556072393     0.685070572
73.4                -0.393839001     0.850841638     -0.316834595     -0.14489717     -0.316834595     -0.14489717     -0.385589133     0.854577406
73.55               -0.203709723     0.947601727     -0.241416426   -0.0509449857     -0.241416425   -0.0509449857     -0.196025669     0.949185757
73.7               -0.0259802387     0.985383214     -0.168816437  -0.00391512751     -0.168816437  -0.00391512756    -0.0192642322     0.985511335
73.85                0.127103536     0.985569691      -0.11096029    0.0146167359      -0.11096029    0.0146167359      0.132792399     0.984806677
74                    0.25464607     0.964355074    -0.0690073496    0.0183971257    -0.0690073496    0.0183971257      0.259400731     0.963088564
74.15                0.359925766     0.931905165    -0.0402639878    0.0156479018    -0.0402639878    0.0156479018      0.363884304     0.930381577
74.3                 0.446993691     0.894116891    -0.0214173353    0.0107566231    -0.0214173353    0.0107566231      0.450292838     0.892486971
74.45                0.519481429     0.854293861   -0.00962605967   0.00587413987   -0.00962605971   0.00587413995      0.522240528     0.852647591
74.6                  0.58033367     0.814250957   -0.00272778891   0.00194766511   -0.00272778894   0.00194766521      0.582651596      0.81264071
74.75                0.631853709     0.774963363   0.000840288435 -0.000691313988   0.000840288416 -0.000691313877      0.633810557     0.773418454
74.9                 0.675825191     0.736933261    0.00218049502  -0.00201067707    0.00218049501  -0.00201067695       0.67748529     0.735468924
75.05                0.713631655     0.700395366    0.00206113776  -0.00211258273    0.00206113777  -0.00211258261      0.715046598     0.699018269
75.2                 0.746353787     0.665432816    0.00101440141  -0.00114950821    0.00101440144  -0.00114950809      0.747565047     0.664144463
75.35                0.774843501     0.632043279  -0.000592555664  0.000716979799  -0.000592555625  0.000716979921      0.775884561     0.630842118
75.5                 0.799779004     0.600177139   -0.00250740403   0.00333522453   -0.00250740398   0.00333522465      0.800677042     0.599059865
75.65                0.821705483     0.569759796   -0.00455762993   0.00657109129   -0.00455762987    0.0065710914      0.822482689     0.568722172
75.8                 0.841065254     0.540704785   -0.00662621474    0.0103099013   -0.00662621467    0.0103099014      0.841739851     0.539742144
75.95                0.858220255     0.512921488   -0.00863474213    0.0144556773   -0.00863474206    0.0144556774      0.858807298     0.512029046
76.1                 0.873468989     0.486319634    -0.0105316398    0.0189292509    -0.0105316397     0.018929251       0.87398099     0.485492677
76.25                 0.88705941     0.460811857    -0.0122839702    0.0236660163    -0.0122839701    0.0236660164      0.887506826     0.460045853
76.4                  0.89919883     0.436315076    -0.0138716803    0.0286137129    -0.0138716802     0.028613713      0.899590444     0.435605732
76.55                0.910061599     0.412751152    -0.0152835606    0.0337304046    -0.0152835605    0.0337304046      0.910404831     0.412094444
76.7                 0.919795128     0.390047112     -0.016514399    0.0389827171    -0.0165143989    0.0389827171      0.920096273     0.389439292
76.85                0.928524644     0.368135113    -0.0175629707    0.0443443381    -0.0175629706    0.0443443382      0.928789068     0.367572708
77                   0.936356975     0.346952249    -0.0184306187    0.0497947613    -0.0184306186    0.0497947614      0.936589276     0.346432047
77.15                0.943383597     0.326440279    -0.0191202502    0.0553182447    -0.0191202501    0.0553182448      0.943587728     0.325959316
77.3                 0.949683087      0.30654531    -0.0196356289     0.060902953    -0.0196356288    0.0609029531       0.94986246     0.306100853
77.45                0.955323123     0.287217471    -0.0199808758     0.066540254    -0.0199808757     0.066540254      0.955480697     0.286807001
77.6                 0.960362121     0.268410581    -0.0201601204    0.0722241427    -0.0201601203    0.0722241427      0.960500468     0.268031774
77.75                0.964850576      0.25008184     -0.020177257    0.0779507716    -0.0201772569    0.0779507716      0.964971942     0.249732554
77.9                 0.968832175     0.232191526    -0.0200357757    0.0837180666    -0.0200357756    0.0837180666      0.968938527     0.231869782
78.05                0.972344719     0.214702723    -0.0197386468    0.0895254141    -0.0197386467    0.0895254141      0.972437784      0.21440669
78.2                 0.975420888     0.197581059    -0.0192882418    0.0953734057    -0.0192882417    0.0953734057      0.975502188     0.197309044
78.35                0.978088882     0.180794475    -0.0186862796     0.101263629    -0.0186862796     0.101263629      0.978159762     0.180544908
78.5                 0.980372957     0.164313007    -0.0179337902       0.1071985    -0.0179337901       0.1071985      0.980434608      0.16408443
78.65                0.982293873     0.148108592    -0.0170310884     0.113181118    -0.0170310883     0.113181118      0.982347352      0.14789965
78.8                 0.983869271     0.132154892    -0.0159777548     0.119215158    -0.0159777547     0.119215158       0.98391552      0.13196432
78.95                0.985113985      0.11642713    -0.0147726196     0.125304773    -0.0147726195     0.125304773      0.985153844      0.11625375
79.1                  0.98604031     0.100901951    -0.0134137472     0.131454518    -0.0134137471     0.131454518      0.986074529     0.100744658
79.25                0.986658213    0.0855572836    -0.0118984194     0.137669284    -0.0118984193     0.137669284      0.986687464    0.0854150443
79.4                 0.986975519    0.0703722329    -0.0102231169     0.143954243    -0.0102231169     0.143954243      0.987000404    0.0702440747