! TOUCHSTONE file generated by CST MICROWAVE STUDIO
! Date and time: Thu Jun 20 15:14:50 2024
! Project name: Unit_Cell_Split_Ring_3x1.cst
! Parameters = {C_tune=7.957; Rs=1; gap_width=2; pcb_edge=1; pcb_thickness=1.6; phantom_edge=10; split_ring_height=0.035; split_ring_inner_radius=30; split_ring_outer_radius=31; state=16.5; trace_width=1}
! Header version: 2024
! Port assignment regex: !\s*Touchstone port\s*([0-9]+)\s*=\s*(CST MWS port|CST DES external port|CST DES block port)\s*(.+)\s* \(\"(.*)\"\)(\s*mode\s*([0-9]+))?.*
! Touchstone port assignment:
! Touchstone port 1 = CST MWS port 1 ("")
! Touchstone port 2 = CST MWS port 2 ("")
! Touchstone port 3 = CST MWS port 3 ("")
! Touchstone port 4 = CST MWS port 4 ("")
# MHz S RI R 50
50                   0.124787835     0.972353434    -0.0486608898   0.00553859014    -0.0486066406   0.00550885912     0.0158908236   -0.0132502122
                   -0.0486608898   0.00553859014      0.142811753     0.973750848   -0.00576670618 -0.000351579175     0.0180652947   -0.0161420228
                   -0.0486066406   0.00550885912   -0.00576670618 -0.000351579175      0.141167201     0.974117514     0.0180953454   -0.0161466724
                    0.0158908037   -0.0132501956     0.0180652721   -0.0161420026     0.0180953228   -0.0161466522      0.952737574     0.297451923
50.15                0.127795811     0.971941006    -0.0486301474   0.00568538432    -0.0485758737   0.00565544637     0.0158398487   -0.0132691746
                   -0.0486301474   0.00568538432      0.145820597     0.973284072   -0.00577020044 -0.000331008852       0.01800343   -0.0161591689
                   -0.0485758737   0.00565544637   -0.00577020044 -0.000331008852      0.144177051     0.973655697     0.0180334678   -0.0161639211
                    0.0158398288    -0.013269158     0.0180034075   -0.0161591487     0.0180334453   -0.0161639009      0.953053258     0.296443035
50.3                 0.130793117     0.971520638    -0.0485986349   0.00583152427    -0.0485443368   0.00580137962      0.015788978   -0.0132878773
                   -0.0485986349   0.00583152427      0.148818409     0.972809527   -0.00577355944 -0.000310471577     0.0179417305   -0.0161760186
                   -0.0485443368   0.00580137962   -0.00577355944 -0.000310471577      0.147175888      0.97318609     0.0179717549    -0.016180873
                    0.0157889583   -0.0132878607      0.017941708   -0.0161759984     0.0179717324   -0.0161808528      0.953366209     0.295439155
50.45                 0.13377977     0.971092418    -0.0485663612    0.0059770083    -0.0485120389   0.00594665719     0.0157382124   -0.0133063227
                   -0.0485663612    0.0059770083      0.151805209     0.972327299   -0.00577678413  -0.00028996819     0.0178801964   -0.0161925746
                   -0.0485120389   0.00594665719   -0.00577678413  -0.00028996819      0.150163734     0.972708781     0.0179102069   -0.0161975307
                    0.0157381927    -0.013306306     0.0178801741   -0.0161925543     0.0179101845   -0.0161975105      0.953676458     0.294440242
50.6                 0.136755789     0.970656427    -0.0485333356   0.00612183482    -0.0484789892   0.00609127744     0.0156875523   -0.0133245127
                   -0.0485333356   0.00612183482      0.154781018     0.971837475   -0.00577987545 -0.000269499518     0.0178188283   -0.0162088395
                   -0.0484789892   0.00609127744   -0.00577987545 -0.000269499518       0.15314061     0.972223853     0.0178488245   -0.0162138971
                    0.0156875327    -0.013324496      0.017818806   -0.0162088192     0.0178488021   -0.0162138768      0.953984036     0.293446257
50.75                0.139721191     0.970212752    -0.0484995669   0.00626600231    -0.0484451967   0.00623523888     0.0156369984   -0.0133424495
                   -0.0484995669   0.00626600231      0.157745857      0.97134014   -0.00578283437 -0.000249066374     0.0177576265   -0.0162248161
                   -0.0484451967   0.00623523888   -0.00578283437 -0.000249066374      0.156106535     0.971731395     0.0177876078   -0.0162299746
                    0.0156369789   -0.0133424328     0.0177576043   -0.0162247958     0.0177875855   -0.0162299543      0.954288973     0.292457162
50.9                 0.142675994     0.969761474    -0.0484650643   0.00640950934    -0.0484106703   0.00637854007     0.0155865513   -0.0133601351
                   -0.0484650643   0.00640950934      0.160699749     0.970835379   -0.00578566182 -0.000228669556     0.0176965913    -0.016240507
                   -0.0484106703   0.00637854007   -0.00578566182 -0.000228669556      0.159061531     0.971231489     0.0177265573   -0.0162457662
                    0.0155865318   -0.0133601184     0.0176965691   -0.0162404867     0.0177265351   -0.0162457459      0.954591298     0.291472916
51.05                0.145620219     0.969302676    -0.0484298366   0.00655235457    -0.0483754189   0.00652117964     0.0155362115   -0.0133775716
                   -0.0484298366   0.00655235457      0.163642714     0.970323276   -0.00578835877  -0.00020830985      0.017635723    -0.016255915
                   -0.0483754189   0.00652117964   -0.00578835877  -0.00020830985      0.162005621      0.97072422     0.0176656732   -0.0162612743
                    0.0155361921   -0.0133775549     0.0176357009   -0.0162558947     0.0176656511    -0.016261254      0.954891041     0.290493483
51.2                 0.148553883      0.96883644    -0.0483938926   0.00669453673    -0.0483394515   0.00666315635     0.0154859796    -0.013394761
                   -0.0483938926   0.00669453673      0.166574776     0.969803915   -0.00579092616 -0.000187988027      0.017575022   -0.0162710426
                   -0.0483394515   0.00666315635   -0.00579092616 -0.000187988027      0.164938827     0.970209672      0.017604956   -0.0162765017
                    0.0154859602   -0.0133947443         0.017575   -0.0162710223      0.017604934   -0.0162764813      0.955188229     0.289518825
51.35                0.151477007     0.968362847    -0.0483572412   0.00683605465    -0.0483027768     0.006804469     0.0154358561   -0.0134117055
                   -0.0483572412   0.00683605465      0.169495957     0.969277377   -0.00579336494 -0.000167704843     0.0175144885   -0.0162858924
                   -0.0483027768     0.006804469   -0.00579336494 -0.000167704843       0.16786117     0.969687927     0.0175444058   -0.0162914509
                    0.0154358368   -0.0134116887     0.0175144666   -0.0162858721     0.0175443839   -0.0162914305      0.955482891     0.288548903
51.5                  0.15438961     0.967881977    -0.0483198911   0.00697690722    -0.0482654035   0.00694511649     0.0153858415   -0.0134284069
                   -0.0483198911   0.00697690722       0.17240628     0.968743746   -0.00579567607 -0.000147461042     0.0174541228   -0.0163004671
                   -0.0482654035   0.00694511649   -0.00579567607 -0.000147461042      0.170772673     0.969159067     0.0174840231   -0.0163061246
                    0.0153858223   -0.0134283901      0.017454101   -0.0163004467     0.0174840012   -0.0163061042      0.955775056     0.287583681
51.65                0.157291713     0.967393911    -0.0482818509   0.00711709342    -0.0482273402   0.00708509779     0.0153359364   -0.0134448673
                   -0.0482818509   0.00711709342      0.175305768     0.968203102   -0.00579786049 -0.000127257355     0.0173939253   -0.0163147692
                   -0.0482273402   0.00708509779   -0.00579786049 -0.000127257355       0.17367336     0.968623174      0.017423808   -0.0163205252
                    0.0153359172   -0.0134448505     0.0173939035   -0.0163147488     0.0174237862   -0.0163205048       0.95606475     0.286623122
51.8                 0.160183336     0.966898727    -0.0482431293   0.00725661232    -0.0481885957   0.00722441196     0.0152861412   -0.0134610887
                   -0.0482431293   0.00725661232      0.178194446     0.967655526   -0.00579991916 -0.000107094497      0.017333896   -0.0163288012
                   -0.0481885957   0.00722441196   -0.00579991916 -0.000107094497      0.176563255     0.968080328     0.0173637608   -0.0163346554
                    0.0152861221   -0.0134610719     0.0173338744   -0.0163287808     0.0173637391   -0.0163346349      0.956352001      0.28566719
51.95                  0.1630645     0.966396505    -0.0482037349   0.00739546305    -0.0481491784   0.00736305813     0.0152364565   -0.0134770731
                   -0.0482037349   0.00739546305      0.181072337     0.967101098   -0.00580185303  -8.6973173e-05     0.0172740354   -0.0163425657
                   -0.0481491784   0.00736305813   -0.00580185303  -8.6973173e-05       0.17944238     0.967530609     0.0173038817   -0.0163485176
                    0.0152364374   -0.0134770562     0.0172740138   -0.0163425453     0.0173038601   -0.0163484972      0.956636835     0.284715848
52.1                 0.165935226     0.965887322     -0.048163676   0.00753364481    -0.0481090969   0.00750103549     0.0151868826   -0.0134928224
                    -0.048163676   0.00753364481      0.183939465     0.966539898   -0.00580366305 -6.68940727e-05     0.0172143435   -0.0163560652
                   -0.0481090969   0.00750103549   -0.00580366305 -6.68940727e-05      0.182310759     0.966974097      0.017244171   -0.0163621144
                    0.0151868636   -0.0134928055      0.017214322   -0.0163560448     0.0172441495   -0.0163620939      0.956919279     0.283769061
52.25                0.168795535     0.965371256    -0.0481229612    0.0076711569    -0.0480683596   0.00763834334       0.01513742   -0.0135083386
                   -0.0481229612    0.0076711569      0.186795855     0.965972004   -0.00580535016 -4.68578736e-05     0.0171548206   -0.0163693022
                   -0.0480683596   0.00763834334   -0.00580535016 -4.68578736e-05      0.185168418      0.96641087     0.0171846289   -0.0163754483
                    0.0151374011   -0.0135083217     0.0171547991   -0.0163692817     0.0171846074   -0.0163754278      0.957199359     0.282826794
52.4                  0.17164545     0.964848383    -0.0480815989   0.00780799866    -0.0480269748   0.00777498101     0.0150880692   -0.0135236237
                   -0.0480815989   0.00780799866      0.189641532     0.965397494   -0.00580691532 -2.68652401e-05     0.0170954668    -0.016382279
                   -0.0480269748   0.00777498101   -0.00580691532 -2.68652401e-05       0.18801538     0.965841007     0.0171252555   -0.0163885217
                    0.0150880503   -0.0135236067     0.0170954454   -0.0163822585     0.0171252341   -0.0163885012      0.957477101     0.281889011
52.55                0.174484992     0.964318779    -0.0480395973   0.00794416953    -0.0479849509   0.00791094794     0.0150388306   -0.0135386794
                   -0.0480395973   0.00794416953       0.19247652     0.964816445   -0.00580835947  -6.9168238e-06     0.0170362824   -0.0163949983
                   -0.0479849509   0.00791094794   -0.00580835947  -6.9168238e-06      0.190851671     0.965264584      0.017066051    -0.016401337
                    0.0150388118   -0.0135386625      0.017036261   -0.0163949778     0.0170660296   -0.0164013165      0.957752529     0.280955679
52.7                 0.177314183     0.963782521    -0.0479969647   0.00807966899    -0.0479422962   0.00804624361     0.0149897045   -0.0135535079
                   -0.0479969647   0.00807966899      0.195300845     0.964228935   -0.00580968356  1.29867362e-05     0.0169772674   -0.0164074623
                   -0.0479422962   0.00804624361   -0.00580968356  1.29867362e-05      0.193677315     0.964681679     0.0170070156   -0.0164138967
                    0.0149896858   -0.0135534909     0.0169772462   -0.0164074418     0.0170069943   -0.0164138762       0.95802567     0.280026762
52.85                0.180133046     0.963239683    -0.0479537093   0.00821449663    -0.0478990187   0.00818086759     0.0149406915   -0.0135681108
                   -0.0479537093   0.00821449663      0.198114533      0.96363504   -0.00581088854  3.28448135e-05     0.0169184221   -0.0164196735
                   -0.0478990187   0.00818086759   -0.00581088854  3.28448135e-05      0.196492338     0.964092368     0.0169481494   -0.0164262032
                    0.0149406728   -0.0135680939     0.0169184009    -0.016419653     0.0169481282   -0.0164261827      0.958296547     0.279102227
53                   0.182941605     0.962690339    -0.0479098392   0.00834865207    -0.0478551267   0.00831481951     0.0148917918   -0.0135824902
                   -0.0479098392   0.00834865207       0.20091761     0.963034834   -0.00581197534  5.26567939e-05     0.0168597465   -0.0164316343
                   -0.0478551267   0.00831481951   -0.00581197534  5.26567939e-05      0.199296765     0.963496725     0.0168894526   -0.0164382589
                    0.0148917731   -0.0135824732     0.0168597254   -0.0164316138     0.0168894315   -0.0164382383      0.958565184      0.27818204
53.15                0.185739881     0.962134563    -0.0478653626   0.00848213501    -0.0478106283   0.00844809907     0.0148430058   -0.0135966479
                   -0.0478653626   0.00848213501        0.2037101     0.962428393   -0.00581294491  7.24220758e-05     0.0168012407   -0.0164433471
                   -0.0478106283   0.00844809907   -0.00581294491  7.24220758e-05      0.202090622     0.962894827     0.0168309253   -0.0164500661
                    0.0148429872   -0.0135966309     0.0168012197   -0.0164433265     0.0168309042   -0.0164500455      0.958831607     0.277266168
53.3                 0.188527898     0.961572428    -0.0478202874   0.00861494523    -0.0477655314   0.00858070602     0.0147943339   -0.0136105858
                   -0.0478202874   0.00861494523      0.206492032     0.961815791   -0.00581379819  9.21400695e-05     0.0167429049   -0.0164548141
                   -0.0477655314   0.00858070602   -0.00581379819  9.21400695e-05      0.204873936     0.962286747     0.0167725675   -0.0164616272
                    0.0147943154   -0.0136105688      0.016742884   -0.0164547935     0.0167725466   -0.0164616066      0.959095839     0.276354579
53.45                 0.19130568     0.961004007    -0.0477746216   0.00874708255     -0.047719844   0.00871264019     0.0147457764   -0.0136243056
                   -0.0477746216   0.00874708255      0.209263431     0.961197101   -0.00581453613  0.000111810197     0.0166847392   -0.0164660377
                    -0.047719844   0.00871264019   -0.00581453613  0.000111810197      0.207646732     0.961672559     0.0167143795   -0.0164729445
                     0.014745758   -0.0136242886     0.0166847183   -0.0164660171     0.0167143586   -0.0164729238      0.959357902     0.275447238
53.6                 0.194073251     0.960429371    -0.0477283731   0.00887854686     -0.047673574   0.00884390148     0.0146973337   -0.0136378093
                   -0.0477283731   0.00887854686      0.212024324     0.960572397   -0.00581515965  0.000131431894     0.0166267436   -0.0164770203
                    -0.047673574   0.00884390148   -0.00581515965  0.000131431894      0.210409038     0.961052335     0.0166563611   -0.0164840202
                    0.0146973153   -0.0136377923     0.0166267228   -0.0164769997     0.0166563403   -0.0164839996       0.95961782     0.274544114
53.75                0.196830635     0.959848592    -0.0476815496   0.00900933813    -0.0476267292   0.00897448983     0.0146490061   -0.0136510986
                   -0.0476815496   0.00900933813      0.214774739      0.95994175    -0.0058156697  0.000151004606     0.0165689182    -0.016487764
                   -0.0476267292   0.00897448983    -0.0058156697  0.000151004606      0.213160879     0.960426149     0.0165985126   -0.0164948568
                    0.0146489877   -0.0136510816     0.0165688974   -0.0164877434     0.0165984919   -0.0164948362      0.959875616     0.273645176
53.9                 0.199577855      0.95926174    -0.0476341591   0.00913945637    -0.0475793174   0.00910440526     0.0146007938   -0.0136641754
                   -0.0476341591   0.00913945637      0.217514701     0.959305233    -0.0058160672   0.00017052779      0.016511263   -0.0164982712
                   -0.0475793174   0.00910440526    -0.0058160672   0.00017052779      0.215902284     0.959794071      0.016540834   -0.0165054564
                    0.0146007755   -0.0136641583     0.0165112423   -0.0164982506     0.0165408133   -0.0165054358      0.960131312      0.27275039
54.05                0.202314937     0.958668887    -0.0475862092   0.00926890165    -0.0475313463   0.00923364784     0.0145526972   -0.0136770414
                   -0.0475862092   0.00926890165       0.22024424     0.958662916    -0.0058163531  0.000190000916      0.016453778   -0.0165085441
                   -0.0475313463   0.00923364784    -0.0058163531  0.000190000916      0.218633278     0.959156174     0.0164833253   -0.0165158213
                     0.014552679   -0.0136770243     0.0164537575   -0.0165085235     0.0164833047   -0.0165158007       0.96038493     0.271859727
54.2                 0.205041905       0.9580701    -0.0475377075   0.00939767412    -0.0474828236    0.0093622177     0.0145047166   -0.0136896984
                   -0.0475377075   0.00939767412      0.222963382      0.95801487   -0.00581652831  0.000209423466     0.0163964634    -0.016518585
                   -0.0474828236    0.0093622177   -0.00581652831  0.000209423466       0.22135389     0.958512526     0.0164259865   -0.0165259538
                    0.0145046985   -0.0136896812     0.0163964429   -0.0165185643      0.016425966   -0.0165259331      0.960636493     0.270973154
54.35                0.207758784      0.95746545    -0.0474886617   0.00952577397    -0.0474337569   0.00949011504     0.0144568522   -0.0137021481
                   -0.0474886617   0.00952577397      0.225672155     0.957361165   -0.00581659377  0.000228794931     0.0163393191    -0.016528396
                   -0.0474337569   0.00949011504   -0.00581659377  0.000228794931      0.224064148     0.957863199     0.0163688177    -0.016535856
                    0.0144568341    -0.013702131     0.0163392986   -0.0165283753     0.0163687973   -0.0165358353      0.960886022     0.270090641
54.5                 0.210465599     0.956855004    -0.0474390793   0.00965320143    -0.0473841536   0.00961734008     0.0144091043   -0.0137143924
                   -0.0474390793   0.00965320143      0.228370588     0.956701869    -0.0058165504  0.000248114815      0.016282345   -0.0165379793
                   -0.0473841536   0.00961734008    -0.0058165504  0.000248114815      0.226764078     0.957208261     0.0163118189   -0.0165455301
                    0.0144090863   -0.0137143753     0.0162823247   -0.0165379586     0.0163117985   -0.0165455094      0.961133537     0.269212158
54.65                0.213162375     0.956238831    -0.0473889678   0.00977995683    -0.0473340214   0.00974389315     0.0143614732    -0.013726433
                   -0.0473889678   0.00977995683      0.231058708     0.956037052   -0.00581639913  0.000267382632     0.0162255413   -0.0165473372
                   -0.0473340214   0.00974389315   -0.00581639913  0.000267382632      0.229453709     0.956547782       0.01625499   -0.0165549783
                    0.0143614552   -0.0137264158      0.016225521   -0.0165473165     0.0162549697   -0.0165549576      0.961379061     0.268337674
54.8                 0.215849139     0.955616998    -0.0473383345   0.00990604053    -0.0472833675   0.00986977458      0.014313959   -0.0137382715
                   -0.0473383345   0.00990604053      0.233736543     0.955366782   -0.00581614087  0.000286597909     0.0161689078   -0.0165564717
                   -0.0472833675   0.00986977458   -0.00581614087  0.000286597909       0.23213307     0.955881829     0.0161983311   -0.0165642028
                    0.0143139411   -0.0137382543     0.0161688876    -0.016556451     0.0161983108   -0.0165641821      0.961622613     0.267467159
54.95                0.218525915     0.954989571    -0.0472871869    0.0100314529    -0.0472321994    0.0099949848      0.014266562   -0.0137499097
                   -0.0472871869    0.0100314529      0.236404123     0.954691126   -0.00581577655  0.000305760181     0.0161124446    -0.016565385
                   -0.0472321994    0.0099949848   -0.00581577655  0.000305760181      0.234802188      0.95521047     0.0161418421   -0.0165732057
                    0.0142665442   -0.0137498925     0.0161124245   -0.0165653643     0.0161418219    -0.016573185      0.961864215     0.266600584
55.1                 0.221192729     0.954356616    -0.0472355322    0.0101561945    -0.0471805243    0.0101195243     0.0142192825   -0.0137613494
                   -0.0472355322    0.0101561945      0.239061476     0.954010151   -0.00581530707  0.000324868995     0.0160561516   -0.0165740793
                   -0.0471805243    0.0101195243   -0.00581530707  0.000324868995      0.237461091     0.954533771      0.016085523   -0.0165819891
                    0.0142192647   -0.0137613321     0.0160561315   -0.0165740585     0.0160855029   -0.0165819684      0.962103886      0.26573792
55.25                0.223849609       0.9537182    -0.0471833777    0.0102802657    -0.0471283494    0.0102433935     0.0141721206   -0.0137725921
                   -0.0471833777    0.0102802657      0.241708632     0.953323923   -0.00581473335   0.00034392391     0.0160000288   -0.0165825565
                   -0.0471283494    0.0102433935   -0.00581473335   0.00034392391       0.24010981       0.9538518     0.0160293737   -0.0165905551
                    0.0141721029   -0.0137725748     0.0160000087   -0.0165825358     0.0160293536   -0.0165905344      0.962341647     0.264879136
55.4                 0.226496579     0.953074387    -0.0471307305    0.0104036672     -0.047075682     0.010366593     0.0141250765   -0.0137836395
                   -0.0471307305    0.0104036672      0.244345618     0.952632508   -0.00581405631  0.000362924494      0.015944076   -0.0165908189
                    -0.047075682     0.010366593   -0.00581405631  0.000362924494      0.242748372     0.953164621     0.0159733942   -0.0165989059
                    0.0141250589   -0.0137836223      0.015944056   -0.0165907981     0.0159733742   -0.0165988851      0.962577517     0.264024206
55.55                0.229133666     0.952425242    -0.0470775978    0.0105263996    -0.0470225292    0.0104891235     0.0140781505   -0.0137944935
                   -0.0470775978    0.0105263996      0.246972464     0.951935971   -0.00581327684  0.000381870325     0.0158882932   -0.0165988684
                   -0.0470225292    0.0104891235   -0.00581327684  0.000381870325      0.245376806       0.9524723     0.0159175844   -0.0166070433
                    0.0140781329   -0.0137944762     0.0158882733   -0.0165988477     0.0159175645   -0.0166070226      0.962811515     0.263173099
55.7                 0.231760897     0.951770828    -0.0470239866    0.0106484635     -0.046968898    0.0106109855     0.0140313427   -0.0138051554
                   -0.0470239866    0.0106484635        0.2495892     0.951234376   -0.00581239585  0.000400760992     0.0158326804   -0.0166067072
                    -0.046968898    0.0106109855   -0.00581239585  0.000400760992      0.247995142     0.951774901     0.0158619442   -0.0166149696
                    0.0140313251   -0.0138051382     0.0158326606   -0.0166066864     0.0158619244   -0.0166149488      0.963043661     0.262325787
55.85                0.234378299     0.951111209    -0.0469699039    0.0107698596    -0.0469147954    0.0107321799     0.0139846532   -0.0138156271
                   -0.0469699039    0.0107698596      0.252195855     0.950527788   -0.00581141424  0.000419596094     0.0157772374   -0.0166143372
                   -0.0469147954    0.0107321799   -0.00581141424  0.000419596094      0.250603409      0.95107249     0.0158064736   -0.0166226868
                    0.0139846357   -0.0138156098     0.0157772177   -0.0166143164     0.0158064538    -0.016622666      0.963273974     0.261482244
56                   0.236985898     0.950446448    -0.0469153567    0.0108905888    -0.0468602284    0.0108527073     0.0139380822   -0.0138259102
                   -0.0469153567    0.0108905888      0.254792458      0.94981627   -0.00581033291  0.000438375241     0.0157219641   -0.0166217604
                   -0.0468602284    0.0108527073   -0.00581033291  0.000438375241      0.253201636     0.950365128     0.0157511724   -0.0166301967
                    0.0139380648   -0.0138258929     0.0157219445   -0.0166217396     0.0157511527   -0.0166301759      0.963502472      0.26064244
56.15                0.239583722     0.949776607    -0.0468603518    0.0110106517    -0.0468052039    0.0109725686       0.01389163   -0.0138360062
                   -0.0468603518    0.0110106517       0.25737904     0.949099885   -0.00580915275  0.000457098052     0.0156668605   -0.0166289789
                   -0.0468052039    0.0109725686   -0.00580915275  0.000457098052      0.255789853     0.949652878     0.0156960406   -0.0166375016
                    0.0138916126   -0.0138359889     0.0156668409   -0.0166289581      0.015696021   -0.0166374808      0.963729175     0.259806349
56.3                 0.242171797     0.949101747    -0.0468048961    0.0111300494    -0.0467497286    0.0110917645     0.0138452965   -0.0138459167
                   -0.0468048961    0.0111300494       0.25995563     0.948378695   -0.00580787466  0.000475764155     0.0156119264   -0.0166359947
                   -0.0467497286    0.0110917645   -0.00580787466  0.000475764155      0.258368089     0.948935804      0.015641078   -0.0166446033
                    0.0138452792   -0.0138458994     0.0156119069   -0.0166359739     0.0156410584   -0.0166445824      0.963954099     0.258973944
56.45                0.244750151     0.948421931    -0.0467489964    0.0112487825    -0.0466938093    0.0112102961      0.013799082   -0.0138556434
                   -0.0467489964    0.0112487825      0.262522259     0.947652761   -0.00580649952  0.000494373189     0.0155571616   -0.0166428096
                   -0.0466938093    0.0112102961   -0.00580649952  0.000494373189      0.260936375     0.948213967     0.0155862845   -0.0166515037
                    0.0137990648   -0.0138556261     0.0155571422   -0.0166427888      0.015586265   -0.0166514829      0.964177263     0.258145196
56.6                 0.247318812     0.947737219    -0.0466926592    0.0113668522    -0.0466374528    0.0113281641     0.0137529866   -0.0138651879
                   -0.0466926592    0.0113668522      0.265078956     0.946922145   -0.00580502822  0.000512924802     0.0155025661   -0.0166494257
                   -0.0466374528    0.0113281641   -0.00580502822  0.000512924802      0.263494741     0.947487428     0.0155316599   -0.0166582049
                    0.0137529694   -0.0138651705     0.0155025468   -0.0166494049     0.0155316405   -0.0166581841      0.964398685      0.25732008
56.75                0.249877807      0.94704767    -0.0466358914    0.0114842593    -0.0465806656    0.0114453697     0.0137070103   -0.0138745516
                   -0.0466358914    0.0114842593      0.267625751     0.946186908   -0.00580346164  0.000531418652     0.0154481397   -0.0166558448
                   -0.0465806656    0.0114453697   -0.00580346164  0.000531418652      0.266043215     0.946756248     0.0154772042   -0.0166647088
                    0.0137069932   -0.0138745343     0.0154481204    -0.016655824     0.0154771848    -0.016664688      0.964618383      0.25649857
56.9                 0.252427163     0.946353345    -0.0465786994    0.0116010049    -0.0465234545    0.0115619138     0.0136611534   -0.0138837362
                   -0.0465786994    0.0116010049      0.270162676     0.945447109   -0.00580180065  0.000549854406     0.0153938823   -0.0166620689
                   -0.0465234545    0.0115619138   -0.00580180065  0.000549854406       0.26858183     0.946020487     0.0154229172   -0.0166710173
                    0.0136611363   -0.0138837188      0.015393863   -0.0166620481     0.0154228979   -0.0166709964      0.964836373     0.255680638
57.05                0.254966909     0.945654303    -0.0465210899      0.01171709    -0.0464658258    0.0116777974     0.0136154158   -0.0138927432
                   -0.0465210899      0.01171709       0.27268976     0.944702809   -0.00580004614  0.000568231739     0.0153397936   -0.0166680999
                   -0.0464658258    0.0116777974   -0.00580004614  0.000568231739      0.271110614     0.945280204     0.0153687986   -0.0166771322
                    0.0136153987   -0.0138927258     0.0153397744   -0.0166680791     0.0153687794   -0.0166771113      0.965052674      0.25486626
57.2                 0.257497072     0.944950602    -0.0464630692    0.0118325158    -0.0464077862    0.0117930217     0.0135697977   -0.0139015741
                   -0.0464630692    0.0118325158      0.275207034     0.943954065   -0.00579819896  0.000586550338     0.0152858735   -0.0166739397
                   -0.0464077862    0.0117930217   -0.00579819896  0.000586550338      0.273629598     0.944535458     0.0153148484   -0.0166830555
                    0.0135697807   -0.0139015567     0.0152858544   -0.0166739188     0.0153148293   -0.0166830346      0.965267301     0.254055408
57.35                0.260017681       0.9442423    -0.0464046439    0.0119472833    -0.0463493419    0.0119075878     0.0135242991   -0.0139102305