! TOUCHSTONE file generated by CST MICROWAVE STUDIO
! Date and time: Thu Jun 27 11:23:28 2024
! Project name: Unit_Cell_Split_Ring_1x1.cst
! Parameters = {C_tune=14; Rs=1.26269; gap_width=2; pcb_edge=1; pcb_thickness=1.6; phantom_edge=10; split_ring_height=0.035; split_ring_inner_radius=30; split_ring_outer_radius=31; state=16.5; trace_width=1}
! Header version: 2024
! Port assignment regex: !\s*Touchstone port\s*([0-9]+)\s*=\s*(CST MWS port|CST DES external port|CST DES block port)\s*(.+)\s* \(\"(.*)\"\)(\s*mode\s*([0-9]+))?.*
! Touchstone port assignment:
! Touchstone port 1 = CST MWS port 1 ("")
! Touchstone port 2 = CST MWS port 2 ("")
# MHz S RI R 50
50                   0.108023366     0.961213362      0.187201399   -0.0562057337       0.18720144   -0.0562057307      0.418052285     0.884497059
50.15                 0.11095413     0.960891151      0.186904472   -0.0567112283      0.186904534   -0.0567112079      0.420453016     0.883386498
50.3                  0.11387512      0.96056128      0.186605817   -0.0572132797      0.186605899   -0.0572132432      0.422841026     0.882274312
50.45                 0.11678635     0.960223825      0.186305467   -0.0577118985      0.186305569   -0.0577118471      0.425216391     0.881160559
50.6                 0.119687833      0.95987886      0.186003458   -0.0582070953      0.186003577   -0.0582070302      0.427579183     0.880045295
50.75                0.122579586      0.95952646      0.185699822   -0.0586988812      0.185699959   -0.0586988035      0.429929476     0.878928577
50.9                 0.125461621       0.9591667      0.185394594   -0.0591872672      0.185394746    -0.059187178      0.432267343     0.877810459
51.05                0.128333954     0.958799652      0.185087805   -0.0596722644      0.185087973   -0.0596721648      0.434592858     0.876690996
51.2                 0.131196602     0.958425389       0.18477949   -0.0601538844      0.184779672   -0.0601537752      0.436906092     0.875570242
51.35                0.134049578     0.958043984      0.184469679   -0.0606321386      0.184469874   -0.0606320209      0.439207117     0.874448249
51.5                   0.1368929     0.957655509      0.184158405   -0.0611070387      0.184158613   -0.0611069133      0.441496007     0.873325068
51.65                0.139726583     0.957260034      0.183845699   -0.0615785965      0.183845919   -0.0615784643      0.443772831     0.872200752
51.8                 0.142550644     0.956857631      0.183531593    -0.062046824      0.183531823   -0.0620466858       0.44603766     0.871075351
51.95                  0.1453651      0.95644837      0.183216117   -0.0625117332      0.183216357   -0.0625115897      0.448290567     0.869948914
52.1                 0.148169968      0.95603232      0.182899302   -0.0629733364      0.182899551   -0.0629731884       0.45053162      0.86882149
52.25                0.150965265     0.955609551      0.182581177   -0.0634316459      0.182581435    -0.063431494      0.452760891     0.867693128
52.4                 0.153751009     0.955180132      0.182261773    -0.063886674      0.182262038   -0.0638865191      0.454978448     0.866563874
52.55                0.156527217      0.95474413      0.181941119   -0.0643384335       0.18194139    -0.064338276      0.457184361     0.865433777
52.7                 0.159293908     0.954301614      0.181619243   -0.0647869369      0.181619521   -0.0647867774      0.459378699      0.86430288
52.85                  0.1620511      0.95385265      0.181296175    -0.065232197      0.181296458   -0.0652320361       0.46156153     0.863171231
53                   0.164798811     0.953397306      0.180971942   -0.0656742267       0.18097223    -0.065674065      0.463732923     0.862038873
53.15                 0.16753706     0.952935648      0.180646573   -0.0661130389      0.180646865   -0.0661128768      0.465892946     0.860905851
53.3                 0.170265866      0.95246774      0.180320096   -0.0665486468      0.180320391   -0.0665484847      0.468041665     0.859772207
53.45                0.172985248      0.95199365      0.179992537   -0.0669810633      0.179992834   -0.0669809018       0.47017915     0.858637985
53.6                 0.175695226     0.951513441      0.179663924   -0.0674103019      0.179664223   -0.0674101413      0.472305465     0.857503226
53.75                 0.17839582     0.951027177      0.179334283   -0.0678363758      0.179334584   -0.0678362165      0.474420678     0.856367972
53.9                 0.181087048     0.950534922       0.17900364   -0.0682592983      0.179003943   -0.0682591407      0.476524855     0.855232263
54.05                0.183768932      0.95003674      0.178672023    -0.068679083      0.178672325   -0.0686789274      0.478618061     0.854096139
54.2                 0.186441491     0.949532694      0.178339456   -0.0690957434      0.178339758   -0.0690955901      0.480700363      0.85295964
54.35                0.189104746     0.949022845      0.178005964   -0.0695092931      0.178006266   -0.0695091425      0.482771824     0.851822805
54.5                 0.191758717     0.948507255      0.177671574   -0.0699197458      0.177671874    -0.069919598      0.484832511     0.850685671
54.65                0.194403426     0.947985986      0.177336309   -0.0703271151      0.177336607   -0.0703269705      0.486882486     0.849548277
54.8                 0.197038892     0.947459099      0.177000194    -0.070731415       0.17700049   -0.0707312737      0.488921815     0.848410659
54.95                0.199665138     0.946926655      0.176663253   -0.0711326592      0.176663547   -0.0711325215       0.49095056     0.847272854
55.1                 0.202282185     0.946388712       0.17632551   -0.0715308617      0.176325801   -0.0715307277      0.492968785     0.846134897
55.25                0.204890053     0.945845331      0.175986989   -0.0719260364      0.175987276   -0.0719259062      0.494976554     0.844996824
55.4                 0.207488765      0.94529657      0.175647712   -0.0723181972      0.175647995   -0.0723180711      0.496973927     0.843858669
55.55                0.210078343     0.944742488      0.175307703   -0.0727073583      0.175307982   -0.0727072364      0.498960969     0.842720467
55.7                 0.212658808     0.944183144      0.174966985   -0.0730935337      0.174967259   -0.0730934161       0.50093774     0.841582252
55.85                0.215230183     0.943618595       0.17462558   -0.0734767375      0.174625849   -0.0734766244      0.502904303     0.840444055
56                   0.217792489     0.943048897      0.174283509   -0.0738569839      0.174283773   -0.0738568753      0.504860718     0.839305911
56.15                 0.22034575     0.942474109      0.173940795    -0.074234287      0.173941053    -0.074234183      0.506807046      0.83816785
56.3                 0.222889987     0.941894285      0.173597459   -0.0746086612      0.173597711   -0.0746085619      0.508743348     0.837029905
56.45                0.225425223     0.941309483      0.173253523   -0.0749801206      0.173253768    -0.074980026      0.510669683     0.835892106
56.6                 0.227951482     0.940719757      0.172909007   -0.0753486795      0.172909246   -0.0753485896      0.512586112     0.834754484
56.75                0.230468786     0.940125162      0.172563932   -0.0757143522      0.172564164   -0.0757142671      0.514492694     0.833617069
56.9                 0.232977157     0.939525753      0.172218319    -0.076077153      0.172218544   -0.0760770728      0.516389488      0.83247989
57.05                 0.23547662     0.938921583      0.171872188   -0.0764370963      0.171872405   -0.0764370209      0.518276552     0.831342976
57.2                 0.237967198     0.938312708      0.171525558   -0.0767941964      0.171525768   -0.0767941258      0.520153946     0.830206356
57.35                0.240448913     0.937699179       0.17117845   -0.0771484677      0.171178652   -0.0771484019      0.522021727     0.829070058
57.5                  0.24292179     0.937081049      0.170830882   -0.0774999245      0.170831076   -0.0774998635      0.523879952     0.827934109
57.65                0.245385852     0.936458372      0.170482874   -0.0778485813      0.170483059    -0.077848525       0.52572868     0.826798537
57.8                 0.247841123     0.935831199      0.170134445   -0.0781944524      0.170134622   -0.0781944009      0.527567966     0.825663369
57.95                0.250287626     0.935199581      0.169785613   -0.0785375522      0.169785781   -0.0785375054      0.529397869     0.824528629
58.1                 0.252725386     0.934563569      0.169436396   -0.0788778953      0.169436556   -0.0788778531      0.531218443     0.823394345
58.25                0.255154426     0.933923215      0.169086814   -0.0792154958      0.169086964   -0.0792154583      0.533029745     0.822260542
58.4                 0.257574771     0.933278568      0.168736883   -0.0795503684      0.168737025   -0.0795503353      0.534831831     0.821127245
58.55                0.259986444     0.932629678      0.168386621   -0.0798825273      0.168386754   -0.0798824987      0.536624755     0.819994477
58.7                 0.262389471     0.931976596      0.168036046   -0.0802119871       0.16803617   -0.0802119629      0.538408573     0.818862264
58.85                0.264783875     0.931319369      0.167685175    -0.080538762      0.167685289   -0.0805387421       0.54018334     0.817730629
59                   0.267169681     0.930658046      0.167334025   -0.0808628665       0.16733413   -0.0808628509      0.541949109     0.816599595
59.15                0.269546913     0.929992677      0.166982613    -0.081184315      0.166982707   -0.0811843035      0.543705934     0.815469186
59.3                 0.271915596     0.929323308      0.166630954   -0.0815031219      0.166631039   -0.0815031144       0.54545387     0.814339423
59.45                0.274275755     0.928649987      0.166279065   -0.0818193014      0.166279141    -0.081819298      0.547192969     0.813210329
59.6                 0.276627414     0.927972761      0.165926963   -0.0821328681      0.165927029   -0.0821328685      0.548923283     0.812081925
59.75                0.278970598     0.927291678      0.165574663   -0.0824438362      0.165574719   -0.0824438404      0.550644867     0.810954234
59.9                 0.281305332     0.926606782      0.165222181     -0.08275222      0.165222227   -0.0827522279      0.552357772     0.809827276
60.05                0.283631641      0.92591812      0.164869531   -0.0830580338      0.164869568   -0.0830580453       0.55406205     0.808701071
60.2                 0.285949549     0.925225738       0.16451673   -0.0833612921      0.164516757    -0.083361307      0.555757752      0.80757564
60.35                0.288259083      0.92452968      0.164163792   -0.0836620089      0.164163809   -0.0836620272       0.55744493     0.806451004
60.5                 0.290560266     0.923829992      0.163810731   -0.0839601985      0.163810739   -0.0839602201      0.559123635      0.80532718
60.65                0.292853125     0.923126717      0.163457563   -0.0842558753      0.163457561      -0.0842559      0.560793917      0.80420419
60.8                 0.295137684     0.922419901      0.163104302   -0.0845490534      0.163104289   -0.0845490811      0.562455827     0.803082051
60.95                0.297413968     0.921709585      0.162750961   -0.0848397469      0.162750939   -0.0848397775      0.564109415     0.801960782
61.1                 0.299682003     0.920995815      0.162397555     -0.08512797      0.162397523   -0.0851280035       0.56575473     0.800840402
61.25                0.301941814     0.920278632      0.162044098   -0.0854137369      0.162044056    -0.085413773      0.567391822     0.799720929
61.4                 0.304193426     0.919558079      0.161690602   -0.0856970616      0.161690551   -0.0856971003       0.56902074      0.79860238
61.55                0.306436865     0.918834199      0.161337081   -0.0859779582       0.16133702   -0.0859779994      0.570641532     0.797484772
61.7                 0.308672156     0.918107032      0.160983549   -0.0862564408      0.160983479   -0.0862564843      0.572254247     0.796368122
61.85                0.310899325     0.917376622      0.160630018   -0.0865325233      0.160629938   -0.0865325691      0.573858933     0.795252448
62                   0.313118397     0.916643008      0.160276501   -0.0868062198      0.160276412   -0.0868062676      0.575455638     0.794137765
62.15                0.315329398     0.915906231      0.159923011   -0.0870775441      0.159922912   -0.0870775939      0.577044409     0.793024089
62.3                 0.317532352     0.915166332      0.159569559   -0.0873465102      0.159569451   -0.0873465619      0.578625293     0.791911437
62.45                0.319727286     0.914423352      0.159216159   -0.0876131319      0.159216042   -0.0876131853      0.580198338     0.790799824
62.6                 0.321914226     0.913677329      0.158862822   -0.0878774231      0.158862695   -0.0878774782       0.58176359     0.789689266
62.75                0.324093196     0.912928303      0.158509559   -0.0881393976      0.158509424   -0.0881394542      0.583321096     0.788579776
62.9                 0.326264222     0.912176313      0.158156384   -0.0883990691      0.158156239   -0.0883991271        0.5848709      0.78747137
63.05                0.328427331     0.911421398      0.157803306   -0.0886564513      0.157803153   -0.0886565107      0.586413049     0.786364063
63.2                 0.330582547     0.910663596      0.157450338    -0.088911558      0.157450176   -0.0889116186      0.587947589     0.785257868
63.35                0.332729897     0.909902945       0.15709749   -0.0891644028       0.15709732   -0.0891644645      0.589474564     0.784152799
63.5                 0.334869405     0.909139483      0.156744774   -0.0894149993      0.156744595   -0.0894150619       0.59099402     0.783048871
63.65                0.337001099     0.908373247        0.1563922    -0.089663361      0.156392013   -0.0896634245         0.592506     0.781946096
63.8                 0.339125002     0.907604275       0.15603978   -0.0899095014      0.156039584   -0.0899095657      0.594010549     0.780844487
63.95                0.341241142     0.906832603      0.155687522   -0.0901534341      0.155687319   -0.0901534991      0.595507712     0.779744057
64.1                 0.343349543     0.906058267      0.155335439   -0.0903951725      0.155335227    -0.090395238       0.59699753      0.77864482
64.25                0.345450231     0.905281303      0.154983539   -0.0906347299       0.15498332   -0.0906347959      0.598480049     0.777546787
64.4                 0.347543233     0.904501748      0.154631833   -0.0908721197      0.154631607   -0.0908721861      0.599955311     0.776449971
64.55                0.349628573     0.903719637      0.154280331   -0.0911073552      0.154280097   -0.0911074218      0.601423359     0.775354383
64.7                 0.351706278     0.902935005      0.153929043   -0.0913404496      0.153928801   -0.0913405164      0.602884236     0.774260036
64.85                0.353776373     0.902147886      0.153577977   -0.0915714162      0.153577728   -0.0915714831      0.604337983      0.77316694
65                   0.355838883     0.901358316      0.153227144    -0.091800268      0.153226888   -0.0918003349      0.605784643     0.772075108
65.15                0.357893835     0.900566328      0.152876552   -0.0920270183       0.15287629   -0.0920270851      0.607224258     0.770984549
65.3                 0.359941254     0.899771957      0.152526211     -0.09225168      0.152525942   -0.0922517467      0.608656869     0.769895275
65.45                0.361981166     0.898975236       0.15217613   -0.0924742662      0.152175854   -0.0924743326      0.610082517     0.768807297
65.6                 0.364013596     0.898176198      0.151826318   -0.0926947898      0.151826035   -0.0926948559      0.611501243     0.767720624
65.75                0.366038569     0.897374876      0.151476782   -0.0929132638      0.151476493   -0.0929133295      0.612913088     0.766635268
65.9                 0.368056113     0.896571304      0.151127532    -0.093129701      0.151127237   -0.0931297662      0.614318092     0.765551237
66.05                0.370066251     0.895765513      0.150778576   -0.0933441143      0.150778275   -0.0933441789      0.615716295     0.764468543
66.2                  0.37206901     0.894957536      0.150429923   -0.0935565163      0.150429616   -0.0935565803      0.617107738     0.763387193
66.35                0.374064415     0.894147405       0.15008158   -0.0937669198      0.150081267   -0.0937669831       0.61849246     0.762307199
66.5                 0.376052492      0.89333515      0.149733555   -0.0939753375      0.149733237      -0.0939754      0.619870499     0.761228568
66.65                0.378033266     0.892520804      0.149385857    -0.094181782      0.149385533   -0.0941818436      0.621241896     0.760151311
66.8                 0.380006763     0.891704398      0.149038492   -0.0943862658      0.149038164   -0.0943863265       0.62260669     0.759075435
66.95                0.381973008     0.890885962      0.148691469   -0.0945888014      0.148691136   -0.0945888612      0.623964918      0.75800095
67.1                 0.383932026     0.890065527      0.148344796   -0.0947894013      0.148344457     -0.09478946      0.625316619     0.756927863
67.25                0.385883844     0.889243122      0.147998478   -0.0949880779      0.147998135   -0.0949881355      0.626661831     0.755856184
67.4                 0.387828485     0.888418778      0.147652524   -0.0951848435      0.147652177      -0.0951849      0.628000593      0.75478592
67.55                0.389765977     0.887592525      0.147306941   -0.0953797104      0.147306589   -0.0953797657      0.629332941     0.753717079
67.7                 0.391696343     0.886764392      0.146961736   -0.0955726908       0.14696138   -0.0955727449      0.630658914     0.752649669
67.85                 0.39361961     0.885934407      0.146616915    -0.095763797      0.146616555   -0.0957638498      0.631978547     0.751583697
68                   0.395535802       0.8851026      0.146272485    -0.095953041      0.146272121   -0.0959530925      0.633291879     0.750519171
68.15                0.397444945     0.884268999      0.145928453    -0.096140435      0.145928086   -0.0961404851      0.634598945     0.749456099
68.3                 0.399347064     0.883433634      0.145584826   -0.0963259909      0.145584455   -0.0963260396      0.635899783     0.748394486
68.45                0.401242184      0.88259653      0.145241609   -0.0965097207      0.145241235   -0.0965097679      0.637194428     0.747334341
68.6                  0.40313033     0.881757718      0.144898809   -0.0966916363      0.144898432   -0.0966916821      0.638482917      0.74627567
68.75                0.405011527     0.880917223      0.144556433   -0.0968717496      0.144556052   -0.0968717939      0.639765284     0.745218479
68.9                 0.406885801     0.880075074      0.144214486   -0.0970500724      0.144214102   -0.0970501151      0.641041566     0.744162774
69.05                0.408753176     0.879231297      0.143872974   -0.0972266164      0.143872588   -0.0972266576      0.642311798     0.743108564
69.2                 0.410613677     0.878385919      0.143531903   -0.0974013933      0.143531514   -0.0974014329      0.643576015     0.742055852
69.35                0.412467329     0.877538967      0.143191279   -0.0975744148      0.143190888   -0.0975744527      0.644834251     0.741004646
69.5                 0.414314158     0.876690467      0.142851107   -0.0977456923      0.142850714   -0.0977457285      0.646086541     0.739954951
69.65                0.416154187     0.875840446      0.142511393   -0.0979152375      0.142510998    -0.097915272       0.64733292     0.738906773
69.8                 0.417987442     0.874988928      0.142172143   -0.0980830617      0.142171746   -0.0980830946      0.648573422     0.737860118
69.95                0.419813947      0.87413594      0.141833362   -0.0982491765      0.141832963   -0.0982492076       0.64980808     0.736814991
70.1                 0.421633728     0.873281506      0.141495054    -0.098413593      0.141494654   -0.0984136225      0.651036928     0.735771397
70.25                0.423446808     0.872425653      0.141157225   -0.0985763228      0.141156824   -0.0985763505          0.65226     0.734729341
70.4                 0.425253213     0.871568404      0.140819881   -0.0987373769      0.140819478   -0.0987374029      0.653477329     0.733688829
70.55                0.427052967     0.870709785      0.140483025   -0.0988967665      0.140482622   -0.0988967908      0.654688948     0.732649865
70.7                 0.428846094      0.86984982      0.140146664   -0.0990545029      0.140146259   -0.0990545254       0.65589489     0.731612455
70.85                 0.43063262     0.868988533      0.139810801    -0.099210597      0.139810396   -0.0992106177      0.657095187     0.730576602
71                   0.432412567     0.868125949      0.139475441   -0.0993650598      0.139475035   -0.0993650788      0.658289872     0.729542311
71.15                0.434185962      0.86726209      0.139140589   -0.0995179024      0.139140183   -0.0995179196      0.659478977     0.728509587
71.3                 0.435952827      0.86639698       0.13880625   -0.0996691356      0.138805843    -0.099669151      0.660662534     0.727478435
71.45                0.437713188     0.865530643      0.138472427   -0.0998187702      0.138472021   -0.0998187839      0.661840575     0.726448857
71.6                 0.439467069     0.864663101      0.138139125   -0.0999668171      0.138138719    -0.099966829      0.663013131     0.725420858
71.75                0.441214493     0.863794379      0.137806349    -0.100113287      0.137805943    -0.100113297      0.664180234     0.724394443
71.9                 0.442955485     0.862924497      0.137474102     -0.10025819      0.137473696    -0.100258199      0.665341915     0.723369614
72.05                0.444690069     0.862053479      0.137142388    -0.100401538      0.137141983    -0.100401545      0.666498205     0.722346376
72.2                 0.446418269     0.861181347      0.136811212    -0.100543341      0.136810807    -0.100543346      0.667649134     0.721324732
72.35                0.448140109     0.860308123      0.136480577    -0.100683609      0.136480173    -0.100683612      0.668794734     0.720304686
72.5                 0.449855613     0.859433828      0.136150487    -0.100822352      0.136150084    -0.100822354      0.669935034     0.719286241
72.65                0.451564804     0.858558485      0.135820946    -0.100959582      0.135820543    -0.100959582      0.671070065     0.718269399
72.8                 0.453267707     0.857682114      0.135491957    -0.101095308      0.135491556    -0.101095307      0.672199857     0.717254166
72.95                0.454964345     0.856804738      0.135163524    -0.101229541      0.135163124    -0.101229538      0.673324439     0.716240542
73.1                 0.456654741     0.855926376      0.134835651    -0.101362292      0.134835252    -0.101362287      0.674443841     0.715228532
73.25                 0.45833892     0.855047049      0.134508341    -0.101493569      0.134507944    -0.101493562      0.675558093     0.714218139
73.4                 0.460016905     0.854166779      0.134181597    -0.101623383      0.134181201    -0.101623375      0.676667223     0.713209364
73.55                 0.46168872     0.853285586      0.133855422    -0.101751745      0.133855028    -0.101751735      0.677771261     0.712202211
73.7                 0.463354387     0.852403489       0.13352982    -0.101878664      0.133529428    -0.101878653      0.678870236     0.711196681
73.85                0.465013931     0.851520509      0.133204794    -0.102004151      0.133204404    -0.102004138      0.679964176     0.710192779
74                   0.466667375     0.850636665      0.132880347    -0.102128214      0.132879959      -0.1021282      0.681053109     0.709190505
74.15                0.468314741     0.849751978      0.132556481    -0.102250865      0.132556096    -0.102250849      0.682137065     0.708189863
74.3                 0.469956053     0.848866466      0.132233201    -0.102372112      0.132232817    -0.102372095      0.683216071     0.707190853
74.45                0.471591335     0.847980149      0.131910508    -0.102491966      0.131910127    -0.102491947      0.684290154      0.70619348
74.6                 0.473220609     0.847093046      0.131588405    -0.102610435      0.131588027    -0.102610416      0.685359344     0.705197743
74.75                0.474843898     0.846205175      0.131266895    -0.102727531       0.13126652     -0.10272751      0.686423667     0.704203646
74.9                 0.476461226     0.845316557      0.130945981    -0.102843262      0.130945608    -0.102843239       0.68748315     0.703211191
75.05                0.478072614     0.844427208      0.130625666    -0.102957638      0.130625296    -0.102957614      0.688537822     0.702220378
75.2                 0.479678087     0.843537147      0.130305951    -0.103070668      0.130305584    -0.103070643      0.689587708     0.701231209
75.35                0.481277666     0.842646393      0.129986839    -0.103182361      0.129986475    -0.103182335      0.690632836     0.700243687
75.5                 0.482871375     0.841754963      0.129668333    -0.103292728      0.129667972    -0.103292701      0.691673233     0.699257813
75.65                0.484459236     0.840862876      0.129350435    -0.103401777      0.129350078    -0.103401748      0.692708925     0.698273587
75.8                 0.486041272     0.839970148      0.129033147    -0.103509517      0.129032793    -0.103509488      0.693739938     0.697291012
75.95                0.487617505     0.839076797      0.128716472    -0.103615958      0.128716121    -0.103615927      0.694766298     0.696310088
76.1                 0.489187957     0.838182841      0.128400411    -0.103721109      0.128400064    -0.103721077      0.695788033     0.695330817
76.25                0.490752652     0.837288297      0.128084967    -0.103824978      0.128084623    -0.103824946      0.696805166     0.694353201
76.4                 0.492311611     0.836393181      0.127770141    -0.103927576      0.127769802    -0.103927543      0.697817725     0.693377239
76.55                0.493864856     0.835497511      0.127455937     -0.10402891      0.127455601    -0.104028876      0.698825735     0.692402933
76.7                  0.49541241     0.834601303      0.127142355     -0.10412899      0.127142023    -0.104128955       0.69982922     0.691430283
76.85                0.496954296     0.833704573      0.126829397    -0.104227825      0.126829069    -0.104227789      0.700828206     0.690459292
77                   0.498490534     0.832807338      0.126517066    -0.104325423      0.126516742    -0.104325387      0.701822719     0.689489958
77.15                0.500021147     0.831909613      0.126205363    -0.104421793      0.126205043    -0.104421756      0.702812783     0.688522284
77.3                 0.501546156     0.831011416      0.125894289    -0.104516944      0.125893973    -0.104516906      0.703798423      0.68755627
77.45                0.503065585     0.830112761      0.125583847    -0.104610885      0.125583536    -0.104610846      0.704779662     0.686591915
77.6                 0.504579454     0.829213664      0.125274038    -0.104703624      0.125273731    -0.104703584      0.705756527     0.685629221
77.75                0.506087785     0.828314142      0.124964864    -0.104795169      0.124964561    -0.104795129      0.706729041     0.684668189
77.9                 0.507590601     0.827414208      0.124656325    -0.104885529      0.124656027    -0.104885489      0.707697227     0.683708818
78.05                0.509087921     0.826513878      0.124348424    -0.104974713       0.12434813    -0.104974672      0.708661111     0.682751108
78.2                 0.510579769     0.825613168      0.124041162    -0.105062729      0.124040873    -0.105062688      0.709620715     0.681795061
78.35                0.512066165     0.824712093      0.123734541    -0.105149585      0.123734256    -0.105149544      0.710576064     0.680840675
78.5                 0.513547131     0.823810666      0.123428561     -0.10523529      0.123428281    -0.105235248      0.711527181     0.679887952
78.65                0.515022687     0.822908902      0.123123224    -0.105319851      0.123122948    -0.105319809      0.712474089     0.678936892
78.8                 0.516492857     0.822006817      0.122818531    -0.105403278       0.12281826    -0.105403235      0.713416811     0.677987493
78.95                 0.51795766     0.821104424      0.122514483    -0.105485577      0.122514217    -0.105485535      0.714355371     0.677039757
79.1                 0.519417117     0.820201737      0.122211082    -0.105566758      0.122210821    -0.105566715      0.715289791     0.676093683
79.25                 0.52087125     0.819298771      0.121908328    -0.105646828      0.121908072    -0.105646785      0.716220094     0.675149271
79.4                  0.52232008      0.81839554      0.121606223    -0.105725795      0.121605971    -0.105725752      0.717146302      0.67420652
79.55                0.523763627     0.817492056      0.121304767    -0.105803667      0.121304521    -0.105803625      0.718068439     0.673265431